ITEM: TIMESTEP
0
ITEM: NUMBER OF ENTRIES
2449
ITEM: BOX BOUNDS ss ss pp
-70.1148 70.1148
3.999 9.001
-0.5 0.5
ITEM: ENTRIES c_4b[1] c_4b[2] c_4d[1] c_4d[2] c_4d[3] c_4d[4] c_4d[5] 
1194 1337 0.1389 0.2 0 0 0 
1113 1211 0.1755 0.5 0 0 0 
1114 1135 0.1608 0.2 0 0 0 
1114 1187 0.1467 0.5 0 0 0 
1104 1132 0.1362 0.5 0 0 0 
1182 1371 0.1545 0.5 0 0 0 
1138 1182 0.1623 0.5 0 0 0 
1099 1138 0.1776 0.5 0 0 0 
1356 1378 0.1416 0.5 0 0 0 
1171 1356 0.1317 0.2 0 0 0 
1199 1373 0.1443 0.5 0 0 0 
1256 1329 0.1512 0.5 0 0 0 
1212 1229 0.1632 0.5 0 0 0 
1212 1248 0.1758 0.5 0 0 0 
1229 1239 0.1542 0.5 0 0 0 
1112 1239 0.1521 0.5 0 0 0 
1369 1385 0.1566 0.2 0 0 0 
1365 1385 0.162 0.5 0 0 0 
1324 1365 0.1332 0.5 0 0 0 
1118 1178 0.1587 0.5 0 0 0 
1174 1210 0.1548 0.5 0 0 0 
1094 1299 0.1458 0.5 0 0 0 
907 1194 0.1323 0.5 0 0 0 
907 1337 0.129 0.5 0 0 0 
973 1194 0.1542 0.5 0 0 0 
973 1211 0.1686 0.2 0 0 0 
679 1113 0.1737 0.5 0 0 0 
679 1211 0.1692 0.5 0 0 0 
727 1113 0.1536 0.2 0 0 0 
727 1175 0.1266 0.5 0 0 0 
998 1117 0.1632 0.5 0 0 0 
846 998 0.1659 0.2 0 0 0 
846 1276 0.1686 0.5 0 0 0 
866 1233 0.1368 0.5 0 0 0 
866 1276 0.1506 0.2 0 0 0 
744 1187 0.1479 0.2 0 0 0 
744 1233 0.1524 0.5 0 0 0 
699 1104 0.1362 0.5 0 0 0 
699 1128 0.1359 0.5 0 0 0 
690 1077 0.1383 0.5 0 0 0 
690 1132 0.126 0.5 0 0 0 
1077 1132 0.1377 0.5 0 0 0 
1077 1371 0.156 0.5 0 0 0 
782 1077 0.1524 0.5 0 0 0 
782 1182 0.1509 0.5 0 0 0 
782 1371 0.1584 0.5 0 0 0 
961 1099 0.156 0.5 0 0 0 
961 1105 0.1485 0.5 0 0 0 
771 944 0.144 0.2 0 0 0 
771 1139 0.1491 0.2 0 0 0 
771 1378 0.1602 0.5 0 0 0 
944 1171 0.1263 0.5 0 0 0 
944 1356 0.1254 0.2 0 0 0 
701 905 0.1536 0.5 0 0 0 
701 944 0.1284 0.5 0 0 0 
701 1171 0.1347 0.5 0 0 0 
905 969 0.1458 0.5 0 0 0 
905 1171 0.1515 0.5 0 0 0 
969 1199 0.1392 0.5 0 0 0 
969 1373 0.1263 0.5 0 0 0 
668 1199 0.1623 0.5 0 0 0 
1052 1199 0.1617 0.2 0 0 0 
1052 1382 0.1524 0.5 0 0 0 
991 1052 0.1431 0.5 0 0 0 
991 1382 0.1293 0.5 0 0 0 
956 991 0.1443 0.5 0 0 0 
956 1329 0.168 0.2 0 0 0 
766 773 0.1338 0.5 0 0 0 
766 956 0.1542 0.5 0 0 0 
766 1329 0.1536 0.5 0 0 0 
773 1074 0.1329 0.5 0 0 0 
773 1256 0.1314 0.2 0 0 0 
712 1165 0.1449 0.5 0 0 0 
670 712 0.1443 0.5 0 0 0 
670 1058 0.1701 0.5 0 0 0 
670 1165 0.1638 0.5 0 0 0 
1058 1173 0.1566 0.5 0 0 0 
686 1173 0.1425 0.5 0 0 0 
1000 1173 0.1482 0.2 0 0 0 
1000 1234 0.1644 0.2 0 0 0 
681 1000 0.1662 0.5 0 0 0 
681 1006 0.1593 0.5 0 0 0 
681 1234 0.1704 0.5 0 0 0 
1006 1234 0.1575 0.5 0 0 0 
1006 1391 0.1443 0.5 0 0 0 
761 932 0.1668 0.5 0 0 0 
761 1006 0.153 0.5 0 0 0 
932 984 0.165 0.5 0 0 0 
984 1032 0.1614 0.5 0 0 0 
1014 1035 0.1632 0.2 0 0 0 
793 1035 0.1446 0.5 0 0 0 
793 1248 0.1506 0.2 0 0 0 
754 1212 0.1533 0.5 0 0 0 
754 1248 0.1569 0.5 0 0 0 
717 813 0.1524 0.5 0 0 0 
717 1212 0.1761 0.5 0 0 0 
717 1229 0.1671 0.5 0 0 0 
813 1229 0.1395 0.5 0 0 0 
813 1239 0.1395 0.5 0 0 0 
693 813 0.1332 0.2 0 0 0 
693 1112 0.1458 0.5 0 0 0 
902 1112 0.1542 0.5 0 0 0 
871 902 0.1632 0.5 0 0 0 
871 1369 0.1518 0.5 0 0 0 
871 1385 0.1728 0.5 0 0 0 
770 871 0.1713 0.2 0 0 0 
770 916 0.1635 0.5 0 0 0 
770 1385 0.1761 0.5 0 0 0 
916 1040 0.1596 0.5 0 0 0 
916 1324 0.1362 0.5 0 0 0 
916 1365 0.1494 0.5 0 0 0 
1040 1324 0.1434 0.5 0 0 0 
1040 1333 0.1719 0.5 0 0 0 
767 925 0.1485 0.2 0 0 0 
767 1040 0.147 0.5 0 0 0 
767 1333 0.1521 0.5 0 0 0 
942 1009 0.1587 0.2 0 0 0 
942 1309 0.1404 0.2 0 0 0 
942 1386 0.1482 0.5 0 0 0 
1009 1024 0.1578 0.5 0 0 0 
1024 1413 0.1392 0.5 0 0 0 
666 1118 0.1668 0.5 0 0 0 
666 1178 0.1611 0.5 0 0 0 
774 1045 0.1329 0.2 0 0 0 
774 1118 0.1443 0.5 0 0 0 
1045 1176 0.1395 0.5 0 0 0 
674 919 0.1629 0.2 0 0 0 
674 1045 0.153 0.2 0 0 0 
674 1176 0.1509 0.5 0 0 0 
919 1136 0.1608 0.5 0 0 0 
919 1176 0.1494 0.2 0 0 0 
655 919 0.1443 0.5 0 0 0 
655 1136 0.1437 0.5 0 0 0 
806 879 0.1578 0.5 0 0 0 
806 1136 0.1482 0.5 0 0 0 
806 1274 0.1383 0.5 0 0 0 
879 1253 0.1689 0.2 0 0 0 
879 1274 0.1599 0.2 0 0 0 
745 879 0.1527 0.2 0 0 0 
745 977 0.1506 0.2 0 0 0 
745 1253 0.1422 0.5 0 0 0 
977 1210 0.1764 0.5 0 0 0 
704 749 0.1518 0.5 0 0 0 
704 1174 0.1506 0.2 0 0 0 
704 1210 0.1734 0.5 0 0 0 
749 1121 0.1518 0.2 0 0 0 
749 1174 0.1332 0.2 0 0 0 
716 1121 0.1674 0.5 0 0 0 
779 1094 0.1611 0.5 0 0 0 
779 1190 0.1422 0.2 0 0 0 
779 1299 0.1431 0.5 0 0 0 
541 612 0.159 0.2 0 0 0 
541 907 0.1308 0.5 0 0 0 
281 612 0.1779 0.5 0 0 0 
281 679 0.1722 0.2 0 0 0 
281 973 0.1716 0.2 0 0 0 
583 679 0.1506 0.5 0 0 0 
583 727 0.1305 0.2 0 0 0 
583 1113 0.1569 0.5 0 0 0 
370 552 0.1581 0.2 0 0 0 
370 727 0.135 0.5 0 0 0 
479 552 0.1491 0.2 0 0 0 
479 998 0.1473 0.5 0 0 0 
310 479 0.1236 0.5 0 0 0 
310 555 0.1389 0.5 0 0 0 
310 846 0.1422 0.5 0 0 0 
555 846 0.1587 0.5 0 0 0 
555 866 0.1407 0.5 0 0 0 
537 555 0.141 0.5 0 0 0 
537 744 0.1419 0.5 0 0 0 
537 866 0.1263 0.5 0 0 0 
221 537 0.1488 0.5 0 0 0 
221 630 0.171 0.2 0 0 0 
221 744 0.1641 0.2 0 0 0 
630 646 0.1662 0.2 0 0 0 
630 744 0.1641 0.2 0 0 0 
630 1114 0.1629 0.5 0 0 0 
646 1114 0.1581 0.2 0 0 0 
646 1135 0.1641 0.5 0 0 0 
635 646 0.1647 0.5 0 0 0 
635 1135 0.1674 0.5 0 0 0 
634 635 0.1689 0.5 0 0 0 
634 699 0.1476 0.2 0 0 0 
634 1128 0.1581 0.2 0 0 0 
224 699 0.1347 0.2 0 0 0 
627 690 0.1356 0.5 0 0 0 
627 699 0.135 0.5 0 0 0 
627 1104 0.1458 0.2 0 0 0 
219 566 0.141 0.5 0 0 0 
219 690 0.1326 0.5 0 0 0 
566 690 0.135 0.5 0 0 0 
566 782 0.1491 0.5 0 0 0 
566 1077 0.1467 0.5 0 0 0 
255 566 0.1542 0.2 0 0 0 
255 644 0.1716 0.5 0 0 0 
255 782 0.1599 0.2 0 0 0 
644 1138 0.1779 0.2 0 0 0 
610 644 0.1761 0.5 0 0 0 
610 1099 0.1758 0.2 0 0 0 
610 1138 0.1758 0.2 0 0 0 
553 575 0.165 0.5 0 0 0 
553 610 0.1716 0.5 0 0 0 
553 961 0.1518 0.2 0 0 0 
553 1099 0.1734 0.5 0 0 0 
575 961 0.1476 0.5 0 0 0 
647 1105 0.168 0.5 0 0 0 
647 1139 0.1518 0.5 0 0 0 
232 505 0.1632 0.5 0 0 0 
232 647 0.1743 0.5 0 0 0 
232 771 0.1716 0.5 0 0 0 
505 701 0.144 0.2 0 0 0 
505 771 0.1596 0.5 0 0 0 
505 944 0.1356 0.5 0 0 0 
300 540 0.144 0.5 0 0 0 
300 701 0.1377 0.5 0 0 0 
300 905 0.1545 0.5 0 0 0 
540 668 0.1584 0.5 0 0 0 
540 905 0.1599 0.5 0 0 0 
540 969 0.1353 0.5 0 0 0 
336 495 0.1749 0.5 0 0 0 
336 668 0.1701 0.5 0 0 0 
336 1052 0.1695 0.5 0 0 0 
495 956 0.1728 0.2 0 0 0 
495 991 0.1485 0.5 0 0 0 
387 495 0.1635 0.5 0 0 0 
387 766 0.1449 0.5 0 0 0 
387 956 0.1593 0.5 0 0 0 
353 432 0.1566 0.5 0 0 0 
353 766 0.1398 0.5 0 0 0 
353 773 0.1338 0.5 0 0 0 
432 712 0.1494 0.5 0 0 0 
432 773 0.1506 0.5 0 0 0 
223 432 0.1701 0.5 0 0 0 
223 670 0.165 0.5 0 0 0 
223 712 0.1461 0.5 0 0 0 
449 670 0.1548 0.5 0 0 0 
449 1058 0.1617 0.2 0 0 0 
332 686 0.1551 0.2 0 0 0 
332 1000 0.1608 0.2 0 0 0 
371 681 0.1725 0.5 0 0 0 
371 1006 0.1596 0.5 0 0 0 
406 433 0.1518 0.5 0 0 0 
406 932 0.1536 0.2 0 0 0 
433 524 0.1614 0.2 0 0 0 
433 984 0.1632 0.5 0 0 0 
524 584 0.1491 0.5 0 0 0 
524 1032 0.1596 0.5 0 0 0 
584 1014 0.1524 0.2 0 0 0 
584 1032 0.1563 0.5 0 0 0 
528 584 0.1491 0.5 0 0 0 
528 1014 0.1557 0.5 0 0 0 
493 528 0.1533 0.5 0 0 0 
493 793 0.138 0.2 0 0 0 
493 1035 0.1608 0.5 0 0 0 
272 717 0.1725 0.5 0 0 0 
272 754 0.1497 0.2 0 0 0 
218 376 0.1281 0.5 0 0 0 
218 717 0.1533 0.5 0 0 0 
376 813 0.1272 0.2 0 0 0 
459 693 0.1581 0.5 0 0 0 
459 902 0.1665 0.5 0 0 0 
299 360 0.1572 0.5 0 0 0 
299 459 0.1746 0.5 0 0 0 
299 871 0.1713 0.5 0 0 0 
360 770 0.1572 0.5 0 0 0 
360 871 0.1539 0.5 0 0 0 
341 604 0.1404 0.2 0 0 0 
341 770 0.1656 0.5 0 0 0 
341 916 0.1545 0.5 0 0 0 
604 916 0.1383 0.5 0 0 0 
604 1040 0.1455 0.5 0 0 0 
354 604 0.138 0.2 0 0 0 
354 767 0.1395 0.5 0 0 0 
317 354 0.1566 0.5 0 0 0 
317 428 0.1701 0.5 0 0 0 
317 767 0.1443 0.5 0 0 0 
317 925 0.1656 0.5 0 0 0 
428 508 0.1704 0.2 0 0 0 
428 925 0.1743 0.5 0 0 0 
428 942 0.1668 0.5 0 0 0 
508 942 0.1584 0.5 0 0 0 
508 1009 0.1623 0.5 0 0 0 
536 607 0.15 0.5 0 0 0 
536 1009 0.1626 0.5 0 0 0 
536 1024 0.1578 0.5 0 0 0 
607 724 0.1476 0.5 0 0 0 
607 1024 0.1452 0.5 0 0 0 
246 574 0.1326 0.2 0 0 0 
246 637 0.1233 0.5 0 0 0 
637 666 0.1446 0.5 0 0 0 
637 774 0.1221 0.5 0 0 0 
637 1118 0.1422 0.5 0 0 0 
574 774 0.1314 0.2 0 0 0 
574 1045 0.1401 0.5 0 0 0 
286 655 0.1392 0.2 0 0 0 
286 674 0.1578 0.2 0 0 0 
286 919 0.1563 0.2 0 0 0 
467 484 0.1266 0.2 0 0 0 
467 655 0.126 0.5 0 0 0 
467 806 0.1305 0.5 0 0 0 
484 806 0.1323 0.5 0 0 0 
484 879 0.1539 0.5 0 0 0 
304 745 0.1377 0.5 0 0 0 
304 879 0.1644 0.5 0 0 0 
302 304 0.1572 0.2 0 0 0 
302 581 0.1533 0.2 0 0 0 
302 745 0.1455 0.2 0 0 0 
302 977 0.1701 0.5 0 0 0 
581 704 0.1554 0.5 0 0 0 
581 977 0.1584 0.5 0 0 0 
529 716 0.1623 0.2 0 0 0 
529 1121 0.1641 0.5 0 0 0 
613 716 0.1467 0.2 0 0 0 
613 1094 0.1458 0.5 0 0 0 
321 613 0.1278 0.2 0 0 0 
321 779 0.1431 0.5 0 0 0 
163 541 0.1311 0.5 0 0 0 
163 612 0.1509 0.5 0 0 0 
65 281 0.1572 0.5 0 0 0 
65 612 0.1581 0.5 0 0 0 
174 281 0.156 0.5 0 0 0 
174 679 0.1512 0.2 0 0 0 
14 310 0.1344 0.5 0 0 0 
6 14 0.153 0.5 0 0 0 
6 38 0.1608 0.5 0 0 0 
6 310 0.141 0.5 0 0 0 
6 555 0.1575 0.2 0 0 0 
38 537 0.1443 0.5 0 0 0 
151 630 0.1653 0.5 0 0 0 
151 646 0.1605 0.5 0 0 0 
203 635 0.1476 0.5 0 0 0 
203 646 0.1443 0.5 0 0 0 
109 121 0.1335 0.5 0 0 0 
109 203 0.1359 0.2 0 0 0 
109 635 0.1563 0.2 0 0 0 
121 224 0.1332 0.5 0 0 0 
121 634 0.1461 0.2 0 0 0 
66 219 0.1542 0.5 0 0 0 
66 224 0.1569 0.5 0 0 0 
66 627 0.1572 0.5 0 0 0 
57 219 0.1374 0.5 0 0 0 
57 255 0.1506 0.5 0 0 0 
153 610 0.1608 0.5 0 0 0 
153 644 0.1629 0.5 0 0 0 
46 553 0.1707 0.5 0 0 0 
46 610 0.1731 0.2 0 0 0 
40 76 0.1728 0.2 0 0 0 
40 553 0.1683 0.2 0 0 0 
40 575 0.1641 0.5 0 0 0 
76 575 0.1695 0.5 0 0 0 
76 647 0.1758 0.5 0 0 0 
202 300 0.1368 0.2 0 0 0 
202 505 0.1431 0.5 0 0 0 
157 540 0.1521 0.2 0 0 0 
157 668 0.1611 0.5 0 0 0 
34 353 0.1365 0.5 0 0 0 
34 432 0.1533 0.2 0 0 0 
192 223 0.1467 0.5 0 0 0 
192 449 0.1365 0.5 0 0 0 
192 670 0.1449 0.2 0 0 0 
186 371 0.1512 0.5 0 0 0 
186 681 0.1509 0.5 0 0 0 
135 371 0.1611 0.2 0 0 0 
135 406 0.1413 0.2 0 0 0 
150 528 0.1392 0.5 0 0 0 
150 584 0.1359 0.2 0 0 0 
28 493 0.1566 0.2 0 0 0 
28 528 0.1557 0.2 0 0 0 
25 28 0.1539 0.5 0 0 0 
25 493 0.1515 0.5 0 0 0 
110 341 0.1521 0.5 0 0 0 
110 360 0.1437 0.5 0 0 0 
125 604 0.1365 0.5 0 0 0 
23 24 0.168 0.2 0 0 0 
23 508 0.1599 0.2 0 0 0 
23 536 0.1602 0.5 0 0 0 
24 194 0.1503 0.5 0 0 0 
24 536 0.1704 0.2 0 0 0 
188 194 0.1305 0.5 0 0 0 
188 666 0.1539 0.5 0 0 0 
161 188 0.1569 0.5 0 0 0 
161 246 0.1509 0.5 0 0 0 
161 637 0.1476 0.5 0 0 0 
161 666 0.1722 0.2 0 0 0 
61 144 0.1509 0.5 0 0 0 
61 246 0.1356 0.5 0 0 0 
61 574 0.1416 0.2 0 0 0 
144 286 0.1542 0.5 0 0 0 
144 674 0.1608 0.5 0 0 0 
175 286 0.1509 0.5 0 0 0 
175 467 0.1377 0.5 0 0 0 
175 655 0.1389 0.2 0 0 0 
122 304 0.1374 0.2 0 0 0 
122 484 0.1269 0.5 0 0 0 
100 205 0.1392 0.2 0 0 0 
100 302 0.1491 0.5 0 0 0 
100 581 0.1374 0.2 0 0 0 
205 581 0.1434 0.2 0 0 0 
205 704 0.1572 0.5 0 0 0 
130 321 0.1377 0.2 0 0 0 
130 613 0.1377 0.2 0 0 0 
1190 1299 0.1269 0.5 0 0 0 
1190 1402 0.1335 0.5 0 0 0 
1379 1424 0.1386 0.5 0 0 0 
1095 1156 0.1374 0.5 0 0 0 
1149 1308 0.1527 0.2 0 0 0 
1217 1258 0.1512 0.2 0 0 0 
1217 1284 0.1617 0.5 0 0 0 
1270 1284 0.1392 0.2 0 0 0 
1381 1422 0.132 0.5 0 0 0 
1148 1297 0.1419 0.2 0 0 0 
1297 1317 0.1248 0.2 0 0 0 
1180 1328 0.156 0.5 0 0 0 
1091 1151 0.1473 0.5 0 0 0 
1144 1359 0.1533 0.2 0 0 0 
1096 1144 0.1557 0.2 0 0 0 
1096 1293 0.1602 0.5 0 0 0 
1155 1293 0.1305 0.5 0 0 0 
1322 1325 0.1674 0.5 0 0 0 
1088 1416 0.1215 0.5 0 0 0 
1332 1405 0.1467 0.5 0 0 0 
1259 1336 0.1638 0.2 0 0 0 
1259 1349 0.171 0.2 0 0 0 
747 779 0.1419 0.5 0 0 0 
747 982 0.1305 0.2 0 0 0 
747 1190 0.1257 0.5 0 0 0 
982 1179 0.1311 0.5 0 0 0 
982 1402 0.1383 0.5 0 0 0 
696 982 0.1434 0.5 0 0 0 
696 1070 0.1554 0.5 0 0 0 
696 1179 0.1389 0.5 0 0 0 
1070 1179 0.1431 0.5 0 0 0 
1070 1193 0.1422 0.5 0 0 0 
711 1193 0.1437 0.5 0 0 0 
988 1020 0.1761 0.5 0 0 0 
1020 1379 0.1662 0.5 0 0 0 
798 1020 0.1755 0.2 0 0 0 
798 1064 0.1647 0.5 0 0 0 
798 1379 0.1623 0.5 0 0 0 
1064 1424 0.141 0.5 0 0 0 
658 1122 0.1554 0.2 0 0 0 
658 1123 0.1512 0.2 0 0 0 
930 1119 0.1698 0.5 0 0 0 
930 1156 0.1563 0.5 0 0 0 
785 1095 0.153 0.5 0 0 0 
785 1209 0.1701 0.5 0 0 0 
684 785 0.171 0.5 0 0 0 
684 1209 0.1641 0.5 0 0 0 
809 1149 0.1503 0.2 0 0 0 
809 1308 0.138 0.5 0 0 0 
838 864 0.1602 0.5 0 0 0 
838 1022 0.1527 0.5 0 0 0 
864 1258 0.1539 0.2 0 0 0 
801 864 0.1521 0.5 0 0 0 
801 1217 0.1494 0.5 0 0 0 
801 1258 0.1338 0.5 0 0 0 
797 836 0.1395 0.5 0 0 0 
797 1217 0.15 0.2 0 0 0 
797 1284 0.1449 0.5 0 0 0 
836 1270 0.1338 0.5 0 0 0 
836 1284 0.1512 0.5 0 0 0 
740 1181 0.1509 0.5 0 0 0 
698 1061 0.1467 0.5 0 0 0 
698 1120 0.1611 0.5 0 0 0 
815 1120 0.1734 0.5 0 0 0 
815 1238 0.1479 0.2 0 0 0 
1023 1238 0.1371 0.5 0 0 0 
880 1023 0.1377 0.2 0 0 0 
880 1338 0.1335 0.5 0 0 0 
1078 1338 0.1602 0.5 0 0 0 
1078 1422 0.1554 0.2 0 0 0 
1001 1046 0.1476 0.2 0 0 0 
1001 1078 0.1635 0.5 0 0 0 
1001 1381 0.1401 0.2 0 0 0 
1001 1422 0.1431 0.5 0 0 0 
1046 1381 0.1365 0.2 0 0 0 
918 1046 0.1518 0.2 0 0 0 
918 1265 0.1488 0.5 0 0 0 
752 1143 0.1617 0.2 0 0 0 
752 1265 0.156 0.5 0 0 0 
968 1143 0.1584 0.2 0 0 0 
968 1188 0.1632 0.2 0 0 0 
683 962 0.1614 0.2 0 0 0 
683 1188 0.1518 0.5 0 0 0 
962 1188 0.1686 0.5 0 0 0 
962 1197 0.1758 0.5 0 0 0 
663 786 0.1425 0.5 0 0 0 
663 962 0.1662 0.5 0 0 0 
663 1197 0.1638 0.2 0 0 0 
786 1197 0.1521 0.5 0 0 0 
786 1201 0.1524 0.5 0 0 0 
669 786 0.1428 0.5 0 0 0 
669 1010 0.1452 0.5 0 0 0 
669 1201 0.1644 0.5 0 0 0 
1010 1201 0.1548 0.5 0 0 0 
1010 1340 0.1407 0.5 0 0 0 
807 1010 0.1512 0.5 0 0 0 
807 1160 0.1536 0.5 0 0 0 
807 1340 0.1563 0.5 0 0 0 
659 807 0.162 0.5 0 0 0 
659 958 0.1395 0.5 0 0 0 
659 1160 0.1488 0.5 0 0 0 
958 1056 0.1461 0.5 0 0 0 
958 1160 0.1311 0.5 0 0 0 
1056 1148 0.1659 0.2 0 0 0 
665 819 0.1566 0.5 0 0 0 
665 1148 0.1512 0.5 0 0 0 
819 1030 0.1656 0.2 0 0 0 
819 1297 0.1473 0.5 0 0 0 
819 1317 0.1497 0.5 0 0 0 
824 1097 0.1545 0.5 0 0 0 
824 1328 0.1536 0.2 0 0 0 
808 824 0.1296 0.5 0 0 0 
808 1180 0.132 0.5 0 0 0 
808 1328 0.1536 0.5 0 0 0 
804 1151 0.1488 0.5 0 0 0 
804 1180 0.1533 0.5 0 0 0 
676 804 0.1638 0.2 0 0 0 
676 1091 0.1623 0.5 0 0 0 
676 1151 0.1404 0.2 0 0 0 
1016 1091 0.1545 0.2 0 0 0 
1016 1359 0.1575 0.5 0 0 0 
775 1016 0.1392 0.5 0 0 0 
775 1144 0.135 0.2 0 0 0 
775 1359 0.1569 0.5 0 0 0 
678 1096 0.162 0.5 0 0 0 
678 1144 0.1377 0.5 0 0 0 
746 1096 0.1707 0.2 0 0 0 
746 1155 0.141 0.5 0 0 0 
746 1293 0.1509 0.5 0 0 0 
981 1155 0.1491 0.5 0 0 0 
981 1213 0.1539 0.5 0 0 0 
718 981 0.1722 0.5 0 0 0 
718 1102 0.1647 0.5 0 0 0 
718 1213 0.1485 0.2 0 0 0 
1053 1102 0.1587 0.5 0 0 0 
1053 1325 0.1611 0.2 0 0 0 
768 769 0.1326 0.5 0 0 0 
768 1053 0.1434 0.5 0 0 0 
768 1325 0.1497 0.5 0 0 0 
769 1322 0.1503 0.5 0 0 0 
1002 1093 0.1434 0.5 0 0 0 
1002 1322 0.1644 0.2 0 0 0 
713 1088 0.1215 0.2 0 0 0 
713 1093 0.1227 0.2 0 0 0 
1069 1088 0.1449 0.5 0 0 0 
1069 1416 0.1434 0.5 0 0 0 
908 1069 0.153 0.2 0 0 0 
1012 1332 0.1494 0.5 0 0 0 
910 1012 0.1644 0.5 0 0 0 
910 1332 0.1398 0.5 0 0 0 
910 1405 0.1617 0.5 0 0 0 
875 910 0.1572 0.5 0 0 0 
875 947 0.1566 0.5 0 0 0 
875 1405 0.1641 0.5 0 0 0 
947 1343 0.1452 0.5 0 0 0 
923 947 0.1506 0.5 0 0 0 
923 1313 0.1419 0.2 0 0 0 
923 1343 0.1422 0.5 0 0 0 
883 923 0.1512 0.5 0 0 0 
883 1313 0.1455 0.5 0 0 0 
883 1336 0.159 0.5 0 0 0 
817 1259 0.1557 0.5 0 0 0 
817 1336 0.1551 0.2 0 0 0 
755 1259 0.147 0.5 0 0 0 
980 1038 0.1776 0.2 0 0 0 
1034 1038 0.1788 0.2 0 0 0 
1039 1423 0.1497 0.5 0 0 0 
959 1039 0.162 0.5 0 0 0 
959 1423 0.1533 0.2 0 0 0 
271 321 0.1503 0.5 0 0 0 
271 407 0.171 0.5 0 0 0 
271 747 0.1491 0.5 0 0 0 
271 779 0.1656 0.5 0 0 0 
407 696 0.1602 0.5 0 0 0 
407 747 0.1473 0.2 0 0 0 
407 982 0.1524 0.5 0 0 0 
457 696 0.1596 0.2 0 0 0 
457 711 0.1653 0.5 0 0 0 
457 1070 0.1638 0.2 0 0 0 
460 595 0.1311 0.2 0 0 0 
460 711 0.147 0.2 0 0 0 
460 988 0.1521 0.5 0 0 0 
595 988 0.1518 0.2 0 0 0 
595 1020 0.1551 0.5 0 0 0 
313 595 0.1524 0.2 0 0 0 
313 798 0.1728 0.5 0 0 0 
313 1020 0.1767 0.5 0 0 0 
582 650 0.1416 0.5 0 0 0 
582 798 0.1527 0.5 0 0 0 
582 1064 0.1458 0.2 0 0 0 
650 1064 0.1536 0.2 0 0 0 
650 1122 0.1551 0.5 0 0 0 
229 650 0.1359 0.5 0 0 0 
229 658 0.1362 0.5 0 0 0 
642 658 0.1578 0.5 0 0 0 
642 1123 0.159 0.2 0 0 0 
622 642 0.1506 0.2 0 0 0 
622 930 0.1512 0.2 0 0 0 
622 1119 0.1542 0.5 0 0 0 
315 622 0.1377 0.5 0 0 0 
315 930 0.1533 0.5 0 0 0 
577 785 0.1755 0.5 0 0 0 
577 1095 0.1515 0.5 0 0 0 
225 577 0.1764 0.2 0 0 0 
225 785 0.1779 0.2 0 0 0 
507 684 0.1704 0.5 0 0 0 
507 809 0.1557 0.2 0 0 0 
401 507 0.1497 0.5 0 0 0 
401 631 0.144 0.2 0 0 0 
401 809 0.1296 0.5 0 0 0 
631 1022 0.1608 0.5 0 0 0 
631 1149 0.1647 0.5 0 0 0 
377 838 0.1638 0.2 0 0 0 
377 1022 0.1683 0.5 0 0 0 
331 377 0.1686 0.5 0 0 0 
331 838 0.153 0.5 0 0 0 
331 864 0.165 0.2 0 0 0 
311 488 0.1668 0.5 0 0 0 
311 801 0.1464 0.5 0 0 0 
311 864 0.1665 0.5 0 0 0 
488 797 0.153 0.5 0 0 0 
488 801 0.1524 0.2 0 0 0 
280 488 0.1764 0.5 0 0 0 
280 525 0.156 0.5 0 0 0 
280 797 0.1566 0.5 0 0 0 
280 836 0.1629 0.5 0 0 0 
525 836 0.1389 0.5 0 0 0 
422 525 0.1326 0.5 0 0 0 
422 740 0.1464 0.5 0 0 0 
312 698 0.1614 0.5 0 0 0 
533 698 0.1587 0.5 0 0 0 
533 815 0.171 0.2 0 0 0 
533 1120 0.1698 0.5 0 0 0 
269 533 0.1497 0.5 0 0 0 
269 614 0.1329 0.5 0 0 0 
269 815 0.1533 0.5 0 0 0 
614 815 0.1542 0.2 0 0 0 
614 1023 0.1434 0.2 0 0 0 
571 614 0.1362 0.2 0 0 0 
571 880 0.1305 0.2 0 0 0 
571 1023 0.1458 0.5 0 0 0 
504 571 0.1557 0.5 0 0 0 
504 880 0.1476 0.5 0 0 0 
504 1078 0.1743 0.5 0 0 0 
567 1001 0.1407 0.5 0 0 0 
544 918 0.159 0.5 0 0 0 
544 1046 0.1512 0.5 0 0 0 
352 544 0.1554 0.5 0 0 0 
352 752 0.1632 0.5 0 0 0 
352 918 0.156 0.2 0 0 0 
226 352 0.1587 0.2 0 0 0 
226 629 0.1632 0.2 0 0 0 
226 752 0.1695 0.2 0 0 0 
629 968 0.1644 0.5 0 0 0 
629 1143 0.1554 0.2 0 0 0 
282 629 0.1644 0.5 0 0 0 
282 683 0.156 0.2 0 0 0 
282 968 0.1674 0.5 0 0 0 
292 663 0.1506 0.5 0 0 0 
292 962 0.1626 0.5 0 0 0 
294 663 0.1449 0.5 0 0 0 
294 786 0.1332 0.5 0 0 0 
263 659 0.1524 0.2 0 0 0 
263 807 0.1572 0.5 0 0 0 
526 659 0.1572 0.2 0 0 0 
526 958 0.1395 0.5 0 0 0 
448 526 0.168 0.5 0 0 0 
448 665 0.1599 0.5 0 0 0 
276 361 0.1536 0.2 0 0 0 
276 665 0.135 0.5 0 0 0 
361 649 0.1653 0.5 0 0 0 
361 819 0.1752 0.5 0 0 0 
361 1030 0.1686 0.5 0 0 0 
649 1030 0.1557 0.2 0 0 0 
649 1097 0.1659 0.5 0 0 0 
514 649 0.1593 0.5 0 0 0 
514 824 0.1479 0.5 0 0 0 
514 1097 0.1728 0.5 0 0 0 
436 438 0.1596 0.5 0 0 0 
436 514 0.1569 0.5 0 0 0 
436 808 0.1386 0.5 0 0 0 
436 824 0.1386 0.2 0 0 0 
438 804 0.1719 0.5 0 0 0 
438 808 0.1506 0.5 0 0 0 
256 438 0.1638 0.5 0 0 0 
256 676 0.1557 0.5 0 0 0 
256 804 0.1641 0.5 0 0 0 
557 676 0.1491 0.5 0 0 0 
557 1091 0.156 0.5 0 0 0 
475 557 0.1521 0.5 0 0 0 
475 775 0.15 0.5 0 0 0 
475 1016 0.1506 0.5 0 0 0 
297 475 0.1452 0.5 0 0 0 
297 678 0.1365 0.5 0 0 0 
297 775 0.1338 0.5 0 0 0 
465 678 0.1548 0.5 0 0 0 
465 746 0.1635 0.5 0 0 0 
465 1096 0.1728 0.5 0 0 0 
236 465 0.1587 0.5 0 0 0 
236 621 0.1434 0.2 0 0 0 
236 746 0.1566 0.5 0 0 0 
621 746 0.1482 0.5 0 0 0 
621 981 0.1563 0.5 0 0 0 
288 718 0.1629 0.5 0 0 0 
288 981 0.1683 0.5 0 0 0 
542 718 0.1647 0.5 0 0 0 
542 1102 0.1626 0.5 0 0 0 
409 542 0.1695 0.5 0 0 0 
409 768 0.1542 0.5 0 0 0 
409 1053 0.1656 0.5 0 0 0 
278 409 0.1719 0.2 0 0 0 
278 446 0.1635 0.5 0 0 0 
278 768 0.1497 0.5 0 0 0 
278 769 0.1503 0.2 0 0 0 
446 601 0.1539 0.5 0 0 0 
446 769 0.1464 0.5 0 0 0 
446 1002 0.1605 0.2 0 0 0 
601 713 0.1341 0.2 0 0 0 
626 713 0.1344 0.2 0 0 0 
626 1069 0.1578 0.5 0 0 0 
626 1088 0.1359 0.5 0 0 0 
486 626 0.1593 0.5 0 0 0 
486 908 0.1545 0.5 0 0 0 
486 1069 0.1683 0.2 0 0 0 
478 486 0.174 0.5 0 0 0 
478 908 0.1587 0.5 0 0 0 
478 1012 0.1761 0.5 0 0 0 
430 478 0.1758 0.2 0 0 0 
430 506 0.1575 0.5 0 0 0 
430 910 0.1641 0.2 0 0 0 
430 1012 0.1737 0.5 0 0 0 
506 875 0.1506 0.5 0 0 0 
506 910 0.1482 0.5 0 0 0 
416 594 0.1437 0.5 0 0 0 
416 875 0.1617 0.5 0 0 0 
416 947 0.1587 0.2 0 0 0 
594 923 0.1356 0.5 0 0 0 
594 947 0.1386 0.5 0 0 0 
441 594 0.1425 0.5 0 0 0 
441 883 0.1581 0.5 0 0 0 
441 923 0.1545 0.2 0 0 0 
367 441 0.1605 0.5 0 0 0 
367 817 0.1533 0.5 0 0 0 
367 883 0.1572 0.5 0 0 0 
334 367 0.1557 0.5 0 0 0 
334 755 0.1407 0.2 0 0 0 
334 817 0.1494 0.2 0 0 0 
318 334 0.1455 0.5 0 0 0 
318 492 0.1473 0.2 0 0 0 
318 755 0.1344 0.5 0 0 0 
492 980 0.1656 0.2 0 0 0 
405 512 0.1716 0.5 0 0 0 
405 1038 0.1785 0.5 0 0 0 
512 1038 0.1725 0.2 0 0 0 
425 512 0.1725 0.5 0 0 0 
425 1034 0.1788 0.2 0 0 0 
517 1039 0.1629 0.5 0 0 0 
539 959 0.1479 0.5 0 0 0 
342 399 0.1605 0.2 0 0 0 
342 539 0.1536 0.5 0 0 0 
342 828 0.1569 0.5 0 0 0 
342 959 0.1713 0.2 0 0 0 
183 407 0.1659 0.2 0 0 0 
183 457 0.1653 0.2 0 0 0 
183 696 0.1569 0.2 0 0 0 
167 457 0.1734 0.5 0 0 0 
167 460 0.1551 0.5 0 0 0 
167 711 0.1707 0.2 0 0 0 
44 460 0.1551 0.5 0 0 0 
44 595 0.1548 0.2 0 0 0 
131 136 0.168 0.5 0 0 0 
131 313 0.1719 0.5 0 0 0 
131 582 0.1518 0.5 0 0 0 
136 582 0.15 0.5 0 0 0 
136 650 0.1578 0.2 0 0 0 
178 229 0.1386 0.2 0 0 0 
178 642 0.1602 0.5 0 0 0 
178 658 0.1524 0.5 0 0 0 
148 169 0.1281 0.2 0 0 0 
148 178 0.144 0.5 0 0 0 
148 642 0.1494 0.5 0 0 0 
169 315 0.1314 0.2 0 0 0 
169 622 0.1293 0.5 0 0 0 
199 315 0.1476 0.2 0 0 0 
199 577 0.1647 0.5 0 0 0 
133 225 0.177 0.2 0 0 0 
133 507 0.1755 0.2 0 0 0 
133 684 0.1701 0.2 0 0 0 
15 84 0.1536 0.5 0 0 0 
15 401 0.1377 0.5 0 0 0 
15 507 0.1638 0.2 0 0 0 
84 631 0.1599 0.5 0 0 0 
68 422 0.1407 0.5 0 0 0 
68 525 0.1401 0.2 0 0 0 
196 312 0.165 0.5 0 0 0 
196 533 0.1623 0.5 0 0 0 
196 698 0.1536 0.2 0 0 0 
86 98 0.1542 0.2 0 0 0 
86 614 0.15 0.2 0 0 0 
98 504 0.1575 0.2 0 0 0 
98 571 0.1404 0.5 0 0 0 
181 567 0.1293 0.5 0 0 0 
160 181 0.1254 0.5 0 0 0 
160 544 0.1404 0.5 0 0 0 
160 567 0.1263 0.5 0 0 0 
58 226 0.1635 0.2 0 0 0 
58 282 0.1647 0.2 0 0 0 
58 629 0.1617 0.5 0 0 0 
190 282 0.159 0.2 0 0 0 
190 292 0.1488 0.2 0 0 0 
190 683 0.1476 0.5 0 0 0 
126 292 0.1572 0.5 0 0 0 
126 294 0.1515 0.2 0 0 0 
126 663 0.1608 0.2 0 0 0 
155 669 0.1578 0.5 0 0 0 
103 526 0.168 0.2 0 0 0 
103 659 0.168 0.5 0 0 0 
176 276 0.1371 0.2 0 0 0 
176 448 0.162 0.2 0 0 0 
176 665 0.1431 0.5 0 0 0 
89 514 0.1698 0.2 0 0 0 
89 649 0.1629 0.5 0 0 0 
43 436 0.1452 0.5 0 0 0 
43 514 0.1545 0.5 0 0 0 
67 436 0.1362 0.5 0 0 0 
67 438 0.1482 0.5 0 0 0 
195 557 0.1419 0.5 0 0 0 
195 676 0.1482 0.2 0 0 0 
172 236 0.1362 0.5 0 0 0 
172 288 0.1398 0.5 0 0 0 
172 621 0.1278 0.5 0 0 0 
187 288 0.1611 0.5 0 0 0 
187 542 0.1629 0.5 0 0 0 
187 718 0.165 0.5 0 0 0 
9 215 0.1797 0.5 0 0 0 
9 446 0.1695 0.5 0 0 0 
9 601 0.1638 0.5 0 0 0 
215 601 0.1641 0.5 0 0 0 
215 626 0.1644 0.5 0 0 0 
215 713 0.15 0.2 0 0 0 
170 486 0.1479 0.2 0 0 0 
170 626 0.1374 0.2 0 0 0 
36 506 0.1509 0.2 0 0 0 
147 441 0.1476 0.2 0 0 0 
147 594 0.1287 0.2 0 0 0 
51 492 0.1443 0.2 0 0 0 
69 405 0.1515 0.5 0 0 0 
69 512 0.1455 0.5 0 0 0 
41 517 0.1683 0.5 0 0 0 
41 539 0.1497 0.5 0 0 0 
1215 1231 0.1254 0.2 0 0 0 
1216 1362 0.153 0.5 0 0 0 
1272 1298 0.1419 0.2 0 0 0 
1247 1364 0.1383 0.2 0 0 0 
1277 1364 0.1488 0.2 0 0 0 
1287 1374 0.1557 0.5 0 0 0 
1232 1347 0.15 0.2 0 0 0 
1290 1306 0.1536 0.5 0 0 0 
1192 1358 0.1458 0.2 0 0 0 
1110 1425 0.1512 0.5 0 0 0 
1150 1419 0.153 0.5 0 0 0 
1195 1353 0.1533 0.5 0 0 0 
1195 1394 0.1392 0.2 0 0 0 
1116 1394 0.1359 0.5 0 0 0 
1100 1116 0.1233 0.5 0 0 0 
1098 1280 0.1506 0.2 0 0 0 
1127 1377 0.1326 0.2 0 0 0 
1140 1330 0.1419 0.5 0 0 0 
1107 1140 0.1434 0.2 0 0 0 
1107 1224 0.1371 0.2 0 0 0 
1224 1268 0.1428 0.5 0 0 0 
1363 1427 0.153 0.5 0 0 0 
1125 1202 0.1671 0.2 0 0 0 
1205 1275 0.1455 0.5 0 0 0 
1089 1111 0.1506 0.5 0 0 0 
828 892 0.1524 0.5 0 0 0 
892 1231 0.1461 0.2 0 0 0 
794 1215 0.1305 0.2 0 0 0 
794 1231 0.1293 0.5 0 0 0 
957 1215 0.1482 0.5 0 0 0 
957 1216 0.1512 0.2 0 0 0 
751 1216 0.153 0.5 0 0 0 
751 1362 0.1734 0.5 0 0 0 
979 1362 0.1485 0.2 0 0 0 
675 976 0.1296 0.2 0 0 0 
675 979 0.1236 0.2 0 0 0 
976 1036 0.1302 0.2 0 0 0 
976 1403 0.1428 0.5 0 0 0 
1036 1403 0.1374 0.5 0 0 0 
970 1036 0.1344 0.2 0 0 0 
911 970 0.1557 0.2 0 0 0 
911 1321 0.1518 0.5 0 0 0 
859 884 0.1488 0.5 0 0 0 
859 911 0.1647 0.5 0 0 0 
859 1298 0.1509 0.5 0 0 0 
859 1321 0.1491 0.5 0 0 0 
884 1272 0.1398 0.5 0 0 0 
884 1298 0.1377 0.5 0 0 0 
850 853 0.1494 0.2 0 0 0 
850 1247 0.1344 0.5 0 0 0 
850 1272 0.1455 0.2 0 0 0 
853 1247 0.1368 0.5 0 0 0 
853 1364 0.1533 0.5 0 0 0 
820 1277 0.1416 0.5 0 0 0 
926 1277 0.1578 0.5 0 0 0 
926 1287 0.1524 0.2 0 0 0 
792 833 0.1575 0.5 0 0 0 
792 926 0.1713 0.5 0 0 0 
792 1287 0.1509 0.5 0 0 0 
792 1374 0.1746 0.5 0 0 0 
833 1232 0.1578 0.5 0 0 0 
833 1374 0.1623 0.5 0 0 0 
777 1232 0.1458 0.2 0 0 0 
952 1347 0.1416 0.5 0 0 0 
952 1380 0.1659 0.5 0 0 0 
921 975 0.1371 0.5 0 0 0 
921 1380 0.1542 0.2 0 0 0 
974 1354 0.1461 0.5 0 0 0 
896 974 0.1581 0.2 0 0 0 
896 1290 0.1524 0.5 0 0 0 
896 1354 0.15 0.5 0 0 0 
826 1290 0.1464 0.5 0 0 0 
826 1306 0.1572 0.2 0 0 0 
796 826 0.1449 0.5 0 0 0 
796 996 0.1539 0.5 0 0 0 
796 1306 0.1521 0.5 0 0 0 
996 1044 0.168 0.5 0 0 0 
1044 1358 0.1548 0.5 0 0 0 
841 1192 0.138 0.5 0 0 0 
936 1192 0.1503 0.5 0 0 0 
936 1318 0.156 0.5 0 0 0 
742 882 0.1503 0.5 0 0 0 
742 936 0.1617 0.5 0 0 0 
742 1318 0.1671 0.5 0 0 0 
882 1110 0.1293 0.5 0 0 0 
882 1425 0.1497 0.5 0 0 0 
734 1110 0.129 0.2 0 0 0 
734 1223 0.1527 0.5 0 0 0 
1050 1055 0.1644 0.2 0 0 0 
1050 1223 0.1668 0.5 0 0 0 
738 1244 0.1449 0.2 0 0 0 
736 1133 0.1365 0.5 0 0 0 
736 1150 0.1476 0.5 0 0 0 
735 1169 0.1704 0.2 0 0 0 
735 1353 0.1755 0.2 0 0 0 
733 735 0.153 0.5 0 0 0 
733 877 0.1371 0.2 0 0 0 
733 1195 0.1308 0.5 0 0 0 
877 1116 0.132 0.5 0 0 0 
877 1195 0.1353 0.5 0 0 0 
877 1394 0.1455 0.5 0 0 0 
1081 1092 0.1518 0.2 0 0 0 
1081 1100 0.135 0.5 0 0 0 
1060 1092 0.1635 0.5 0 0 0 
1041 1060 0.1623 0.2 0 0 0 
1041 1393 0.1437 0.5 0 0 0 
1028 1320 0.1569 0.5 0 0 0 
1028 1393 0.1413 0.5 0 0 0 
900 1084 0.1539 0.5 0 0 0 
900 1320 0.1479 0.2 0 0 0 
1084 1280 0.1575 0.5 0 0 0 
811 1084 0.1479 0.5 0 0 0 
811 1098 0.141 0.5 0 0 0 
811 1280 0.1302 0.5 0 0 0 
750 1098 0.1635 0.5 0 0 0 
847 986 0.1434 0.5 0 0 0 
847 1071 0.1524 0.5 0 0 0 
1071 1346 0.1596 0.5 0 0 0 
1021 1346 0.1425 0.2 0 0 0 
732 1127 0.1452 0.5 0 0 0 
917 1127 0.1494 0.5 0 0 0 
917 1225 0.1491 0.5 0 0 0 
917 1377 0.1386 0.5 0 0 0 
739 917 0.1401 0.5 0 0 0 
739 1085 0.1419 0.2 0 0 0 
739 1225 0.1338 0.2 0 0 0 
1085 1225 0.1509 0.2 0 0 0 
842 1085 0.1473 0.5 0 0 0 
842 1140 0.1425 0.5 0 0 0 
842 1330 0.135 0.5 0 0 0 
702 1140 0.1353 0.5 0 0 0 
844 1224 0.129 0.2 0 0 0 
844 1268 0.135 0.2 0 0 0 
780 844 0.1401 0.2 0 0 0 
780 1268 0.1539 0.5 0 0 0 
897 1363 0.1503 0.5 0 0 0 
1047 1427 0.1536 0.5 0 0 0 
939 1047 0.1485 0.2 0 0 0 
939 1400 0.1551 0.2 0 0 0 
885 939 0.1362 0.2 0 0 0 
885 941 0.1458 0.5 0 0 0 
885 1400 0.1545 0.2 0 0 0 
941 1004 0.1647 0.5 0 0 0 
865 1004 0.1533 0.2 0 0 0 
865 1202 0.1515 0.5 0 0 0 
865 1292 0.1278 0.5 0 0 0 
723 1125 0.144 0.2 0 0 0 
723 1202 0.1467 0.5 0 0 0 
872 1125 0.1503 0.5 0 0 0 
872 1275 0.1446 0.2 0 0 0 
760 872 0.1425 0.5 0 0 0 
760 1205 0.1434 0.5 0 0 0 
760 1275 0.1509 0.2 0 0 0 
748 760 0.1353 0.2 0 0 0 
748 1111 0.1428 0.5 0 0 0 
748 1205 0.1299 0.5 0 0 0 
890 1089 0.1497 0.5 0 0 0 
399 892 0.156 0.5 0 0 0 
295 398 0.177 0.5 0 0 0 
295 399 0.1593 0.2 0 0 0 
295 794 0.1545 0.5 0 0 0 
295 892 0.1713 0.5 0 0 0 
398 794 0.1569 0.2 0 0 0 
398 957 0.1746 0.5 0 0 0 
385 398 0.1761 0.5 0 0 0 
385 751 0.1731 0.5 0 0 0 
385 957 0.1713 0.2 0 0 0 
254 385 0.1473 0.5 0 0 0 
254 534 0.1215 0.2 0 0 0 
254 751 0.1476 0.2 0 0 0 
534 675 0.1224 0.5 0 0 0 
534 751 0.1473 0.5 0 0 0 
414 638 0.1476 0.5 0 0 0 
414 675 0.1482 0.5 0 0 0 
414 976 0.1542 0.2 0 0 0 
638 970 0.1332 0.5 0 0 0 
638 1036 0.1236 0.2 0 0 0 
381 638 0.1509 0.5 0 0 0 
381 911 0.1734 0.2 0 0 0 
381 970 0.1617 0.2 0 0 0 
327 362 0.153 0.5 0 0 0 
327 381 0.1734 0.2 0 0 0 
327 859 0.1647 0.5 0 0 0 
327 911 0.1674 0.5 0 0 0 
362 417 0.153 0.5 0 0 0 
362 859 0.1503 0.5 0 0 0 
417 850 0.1572 0.2 0 0 0 
417 884 0.1515 0.2 0 0 0 
386 417 0.1614 0.5 0 0 0 
386 431 0.1509 0.5 0 0 0 
386 850 0.1512 0.2 0 0 0 
386 853 0.1536 0.2 0 0 0 
431 820 0.1434 0.2 0 0 0 
431 853 0.1491 0.5 0 0 0 
383 393 0.1563 0.2 0 0 0 
383 431 0.1563 0.2 0 0 0 
383 820 0.1533 0.5 0 0 0 
383 926 0.1695 0.5 0 0 0 
393 792 0.1581 0.5 0 0 0 
393 926 0.1596 0.5 0 0 0 
421 792 0.1518 0.5 0 0 0 
421 833 0.1395 0.5 0 0 0 
415 421 0.1554 0.2 0 0 0 
415 777 0.1491 0.5 0 0 0 
415 833 0.1611 0.5 0 0 0 
307 415 0.1785 0.5 0 0 0 
307 608 0.1614 0.5 0 0 0 
307 777 0.1506 0.2 0 0 0 
307 952 0.1668 0.2 0 0 0 
608 921 0.1365 0.5 0 0 0 
608 952 0.1482 0.5 0 0 0 
502 608 0.1536 0.5 0 0 0 
502 921 0.1473 0.5 0 0 0 
502 975 0.1542 0.5 0 0 0 
605 974 0.144 0.2 0 0 0 
605 975 0.1389 0.5 0 0 0 
369 605 0.1548 0.5 0 0 0 
369 896 0.1689 0.5 0 0 0 
369 974 0.165 0.2 0 0 0 
301 369 0.1755 0.5 0 0 0 
301 375 0.1605 0.5 0 0 0 
301 826 0.1626 0.5 0 0 0 
301 896 0.1686 0.2 0 0 0 
375 796 0.1428 0.5 0 0 0 
326 375 0.1605 0.5 0 0 0 
326 796 0.1575 0.5 0 0 0 
326 996 0.1716 0.2 0 0 0 
530 841 0.1377 0.2 0 0 0 
530 1044 0.1587 0.2 0 0 0 
592 841 0.1512 0.2 0 0 0 
592 936 0.1635 0.5 0 0 0 
470 592 0.1557 0.5 0 0 0 
470 742 0.1539 0.2 0 0 0 
470 936 0.1428 0.5 0 0 0 
242 463 0.1299 0.5 0 0 0 
242 470 0.1299 0.5 0 0 0 
242 742 0.1488 0.5 0 0 0 
463 651 0.1353 0.5 0 0 0 
463 742 0.1539 0.5 0 0 0 
651 734 0.1314 0.5 0 0 0 
651 882 0.1317 0.5 0 0 0 
651 1110 0.1332 0.2 0 0 0 
253 593 0.1593 0.2 0 0 0 
253 734 0.1386 0.5 0 0 0 
593 734 0.1479 0.5 0 0 0 
593 1050 0.162 0.5 0 0 0 
556 570 0.1452 0.5 0 0 0 
556 593 0.1662 0.5 0 0 0 
556 1050 0.1596 0.2 0 0 0 
556 1055 0.1686 0.2 0 0 0 
570 738 0.1317 0.5 0 0 0 
570 1055 0.15 0.5 0 0 0 
258 570 0.1305 0.2 0 0 0 
258 619 0.1512 0.5 0 0 0 
619 736 0.1491 0.5 0 0 0 
619 738 0.1524 0.5 0 0 0 
619 1133 0.1554 0.5 0 0 0 
228 619 0.1665 0.5 0 0 0 
228 620 0.1659 0.5 0 0 0 
620 736 0.1485 0.2 0 0 0 
620 1150 0.1659 0.5 0 0 0 
249 620 0.171 0.2 0 0 0 
249 639 0.1701 0.5 0 0 0 
639 735 0.1692 0.2 0 0 0 
639 1169 0.1662 0.2 0 0 0 
241 257 0.1431 0.5 0 0 0 
241 639 0.147 0.2 0 0 0 
241 735 0.1512 0.5 0 0 0 
257 303 0.1581 0.5 0 0 0 
257 733 0.1449 0.2 0 0 0 
257 735 0.1653 0.5 0 0 0 
303 603 0.168 0.5 0 0 0 
303 733 0.1458 0.2 0 0 0 
303 877 0.1503 0.5 0 0 0 
603 623 0.1725 0.5 0 0 0 
603 877 0.1593 0.5 0 0 0 
603 1116 0.1497 0.5 0 0 0 
623 628 0.1602 0.2 0 0 0 
623 1081 0.1569 0.5 0 0 0 