ITEM: TIMESTEP
0
ITEM: NUMBER OF ATOMS
1627
ITEM: BOX BOUNDS ss ss pp
-70.1148 70.1148
3.999 9.001
-0.5 0.5
ITEM: ATOMS id radius mass 
1528 0.05 0.714712 
1529 0.05 0.714712 
1578 0.05 0.714712 
1579 0.05 0.714712 
1530 0.05 0.714712 
1531 0.05 0.714712 
1580 0.05 0.714712 
1581 0.05 0.714712 
1532 0.05 0.714712 
1533 0.05 0.714712 
1582 0.05 0.714712 
1583 0.05 0.714712 
1534 0.05 0.714712 
1535 0.05 0.714712 
1584 0.05 0.714712 
1585 0.05 0.714712 
1536 0.05 0.714712 
1537 0.05 0.714712 
1586 0.05 0.714712 
1587 0.05 0.714712 
1538 0.05 0.714712 
1539 0.05 0.714712 
1588 0.05 0.714712 
1589 0.05 0.714712 
1540 0.05 0.714712 
1541 0.05 0.714712 
1590 0.05 0.714712 
1591 0.05 0.714712 
1542 0.05 0.714712 
1543 0.05 0.714712 
1592 0.05 0.714712 
1593 0.05 0.714712 
1544 0.05 0.714712 
1545 0.05 0.714712 
1594 0.05 0.714712 
1595 0.05 0.714712 
1546 0.05 0.714712 
1547 0.05 0.714712 
1596 0.05 0.714712 
1597 0.05 0.714712 
1548 0.05 0.714712 
1549 0.05 0.714712 
1598 0.05 0.714712 
1599 0.05 0.714712 
1550 0.05 0.714712 
1551 0.05 0.714712 
1600 0.05 0.714712 
1601 0.05 0.714712 
1552 0.05 0.714712 
1553 0.05 0.714712 
1602 0.05 0.714712 
1603 0.05 0.714712 
1554 0.05 0.714712 
1555 0.05 0.714712 
1604 0.05 0.714712 
1605 0.05 0.714712 
1556 0.05 0.714712 
1557 0.05 0.714712 
1606 0.05 0.714712 
1607 0.05 0.714712 
1558 0.05 0.714712 
1559 0.05 0.714712 
1608 0.05 0.714712 
1609 0.05 0.714712 
1337 0.113 3.65046 
1194 0.1185 4.01447 
1211 0.1425 5.80525 
1113 0.15 6.43241 
1175 0.105 3.15188 
1117 0.1305 4.86869 
1276 0.146 6.09392 
1233 0.123 4.32515 
1187 0.1155 3.81378 
1114 0.129 4.75741 
1135 0.139 5.52358 
1396 0.115 3.78083 
1128 0.122 4.25511 
1104 0.1225 4.29006 
1132 0.1045 3.12193 
1371 0.135 5.21025 
1182 0.1225 4.29006 
1138 0.148 6.26202 
1099 0.148 6.26202 
1105 0.1355 5.24892 
1139 0.1085 3.36551 
1378 0.127 4.61104 
1356 0.109 3.3966 
1171 0.1105 3.49073 
1373 0.1095 3.42783 
1199 0.131 4.90607 
1382 0.1155 3.81378 
1329 0.1395 5.56339 
1256 0.1125 3.61823 
1165 0.137 5.36577 
1173 0.1135 3.68284 
1234 0.1405 5.64344 
1391 0.1185 4.01447 
1248 0.1495 6.3896 
1212 0.1435 5.88701 
1229 0.1285 4.7206 
1239 0.1285 4.7206 
1112 0.125 4.46695 
1369 0.113 3.65046 
1385 0.148 6.26202 
1365 0.122 4.25511 
1324 0.1 2.85885 
1333 0.1475 6.21978 
1309 0.105 3.15188 
1386 0.118 3.98066 
1413 0.1045 3.12193 
1178 0.1275 4.64742 
1118 0.137 5.36577 
1176 0.1145 3.74802 
1136 0.1335 5.09511 
1274 0.117 3.91348 
1253 0.132 4.98126 
1210 0.148 6.26202 
1174 0.11 3.45921 
1121 0.141 5.68368 
1094 0.1365 5.32668 
1299 0.1065 3.24258 
1560 0.05 0.714712 
1561 0.05 0.714712 
1610 0.05 0.714712 
1611 0.05 0.714712 
907 0.102 2.97435 
973 0.1385 5.48392 
679 0.1395 5.56339 
727 0.106 3.2122 
998 0.1415 5.72406 
846 0.135 5.21025 
866 0.105 3.15188 
744 0.131 4.90607 
699 0.1045 3.12193 
690 0.1055 3.18197 
1077 0.125 4.46695 
782 0.129 4.75741 
961 0.112 3.58614 
771 0.14 5.60334 
944 0.1 2.85885 
701 0.114 3.71536 
905 0.142 5.76458 
969 0.101 2.91631 
668 0.1395 5.56339 
1052 0.1385 5.48392 
991 0.1 2.85885 
956 0.1405 5.64344 
766 0.1165 3.8801 
773 0.1065 3.24258 
1074 0.115 3.78083 
712 0.1045 3.12193 
670 0.136 5.28773 
1058 0.1475 6.21978 
686 0.124 4.39577 
1000 0.1335 5.09511 
681 0.1435 5.88701 
1006 0.122 4.25511 
761 0.133 5.05702 
932 0.145 6.01073 
984 0.13 4.83146 
1032 0.139 5.52358 
1014 0.1325 5.01907 
1035 0.1395 5.56339 
793 0.1015 2.94526 
754 0.112 3.58614 
717 0.15 6.43241 
813 0.104 3.09213 
693 0.118 3.98066 
902 0.132 4.98126 
871 0.14 5.60334 
770 0.1455 6.05226 
916 0.127 4.61104 
1040 0.139 5.52358 
767 0.106 3.2122 
925 0.1415 5.72406 
942 0.129 4.75741 
1009 0.1355 5.24892 
1024 0.1275 4.64742 
724 0.1315 4.94359 
666 0.141 5.68368 
774 0.1035 3.06247 
1045 0.118 3.98066 
674 0.137 5.36577 
919 0.1345 5.17173 
655 0.106 3.2122 
806 0.1135 3.68284 
879 0.1495 6.3896 
745 0.105 3.15188 
977 0.146 6.09392 
704 0.141 5.68368 
749 0.112 3.58614 
716 0.138 5.44439 
779 0.132 4.98126 
1562 0.05 0.714712 
1563 0.05 0.714712 
1612 0.05 0.714712 
1613 0.05 0.714712 
541 0.116 3.84687 
612 0.149 6.34693 
281 0.1475 6.21978 
583 0.1115 3.55419 
370 0.119 4.04842 
552 0.1445 5.96935 
479 0.104 3.09213 
310 0.102 2.97435 
555 0.1295 4.79436 
537 0.1055 3.18197 
221 0.1425 5.80525 
630 0.1425 5.80525 
646 0.1345 5.17173 
635 0.14 5.60334 
634 0.1415 5.72406 
224 0.12 4.11674 
627 0.1205 4.15112 
219 0.1155 3.81378 
566 0.1195 4.08251 
255 0.1375 5.40501 
644 0.1485 6.30441 
610 0.145 6.01073 
553 0.141 5.68368 
575 0.134 5.13335 
647 0.1445 5.96935 
232 0.146 6.09392 
505 0.126 4.53871 
300 0.1155 3.81378 
540 0.1245 4.43129 
336 0.144 5.92811 
495 0.1475 6.21978 
387 0.125 4.46695 
353 0.1165 3.8801 
432 0.1445 5.96935 
223 0.139 5.52358 
449 0.122 4.25511 
332 0.1345 5.17173 
371 0.144 5.92811 
406 0.111 3.52239 
433 0.142 5.76458 
524 0.127 4.61104 
584 0.1215 4.2203 
528 0.127 4.61104 
493 0.1285 4.7206 
272 0.1375 5.40501 
218 0.1055 3.18197 
376 0.108 3.33456 
459 0.1455 6.05226 
299 0.1455 6.05226 
360 0.1165 3.8801 
341 0.1305 4.86869 
604 0.1035 3.06247 
354 0.1265 4.5748 
317 0.1345 5.17173 
428 0.149 6.34693 
508 0.135 5.21025 
536 0.1355 5.24892 
607 0.1145 3.74802 
246 0.1055 3.18197 
637 0.1 2.85885 
574 0.1155 3.81378 
286 0.126 4.53871 
467 0.104 3.09213 
484 0.107 3.2731 
304 0.1245 4.43129 
302 0.1375 5.40501 
581 0.118 3.98066 
529 0.1325 5.01907 
613 0.1065 3.24258 
321 0.1065 3.24258 
1564 0.05 0.714712 
1565 0.05 0.714712 
1614 0.05 0.714712 
1615 0.05 0.714712 
163 0.1025 3.00358 
65 0.1145 3.74802 
174 0.1125 3.61823 
14 0.122 4.25511 
6 0.133 5.05702 
38 0.135 5.21025 
151 0.133 5.05702 
203 0.106 3.2122 
109 0.1205 4.15112 
121 0.102 2.97435 
66 0.1415 5.72406 
57 0.1135 3.68284 
153 0.123 4.32515 
46 0.1435 5.88701 
40 0.1395 5.56339 
76 0.1485 6.30441 
202 0.1125 3.61823 
157 0.129 4.75741 
34 0.111 3.52239 
192 0.1055 3.18197 
186 0.108 3.33456 
135 0.1245 4.43129 
150 0.105 3.15188 
28 0.1325 5.01907 
25 0.124 4.39577 
110 0.123 4.32515 
125 0.124 4.39577 
23 0.1315 4.94359 
24 0.1485 6.30441 
194 0.102 2.97435 
188 0.1155 3.81378 
161 0.146 6.09392 
61 0.1205 4.15112 
144 0.131 4.90607 
175 0.1255 4.50276 
122 0.1045 3.12193 
100 0.111 3.52239 
205 0.121 4.18564 
130 0.123 4.32515 
1566 0.05 0.714712 
1567 0.05 0.714712 
1616 0.05 0.714712 
1617 0.05 0.714712 
1568 0.05 0.714712 
1569 0.05 0.714712 
1618 0.05 0.714712 
1619 0.05 0.714712 
1570 0.05 0.714712 
1571 0.05 0.714712 
1620 0.05 0.714712 
1621 0.05 0.714712 
1572 0.05 0.714712 
1573 0.05 0.714712 
1622 0.05 0.714712 
1623 0.05 0.714712 
1574 0.05 0.714712 
1575 0.05 0.714712 
1624 0.05 0.714712 
1625 0.05 0.714712 
1576 0.05 0.714712 
1577 0.05 0.714712 
1626 0.05 0.714712 
1627 0.05 0.714712 
1190 0.105 3.15188 
1402 0.1175 3.947 
1179 0.1055 3.18197 
1193 0.104 3.09213 
1379 0.1275 4.64742 
1424 0.1035 3.06247 
1122 0.134 5.13335 
1123 0.127 4.61104 
1119 0.144 5.92811 
1156 0.1215 4.2203 
1095 0.1075 3.30376 
1209 0.136 5.28773 
1308 0.117 3.91348 
1149 0.1375 5.40501 
1331 0.1115 3.55419 
1258 0.113 3.65046 
1217 0.139 5.52358 
1284 0.1305 4.86869 
1270 0.1015 2.94526 
1181 0.1185 4.01447 
1120 0.1435 5.88701 
1238 0.101 2.91631 
1338 0.1205 4.15112 
1422 0.1125 3.61823 
1381 0.1075 3.30376 
1265 0.115 3.78083 
1143 0.1245 4.43129 
1188 0.1325 5.01907 
1197 0.1445 5.96935 
1201 0.145 6.01073 
1340 0.1215 4.2203 
1160 0.117 3.91348 
1148 0.1345 5.17173 
1297 0.102 2.97435 
1317 0.106 3.2122 
1097 0.1495 6.3896 
1328 0.148 6.26202 
1180 0.112 3.58614 
1151 0.1045 3.12193 
1091 0.141 5.68368 
1359 0.146 6.09392 
1144 0.1095 3.42783 
1096 0.15 6.43241 
1293 0.117 3.91348 
1155 0.1005 2.88751 
1213 0.1085 3.36551 
1102 0.1355 5.24892 
1325 0.1395 5.56339 
1322 0.1395 5.56339 
1093 0.1045 3.12193 
1088 0.1025 3.00358 
1416 0.1 2.85885 
1332 0.104 3.09213 
1405 0.1405 5.64344 
1343 0.114 3.71536 
1313 0.1135 3.68284 
1336 0.136 5.28773 
1259 0.137 5.36577 
1349 0.148 6.26202 
1423 0.1175 3.947 
747 0.1045 3.12193 
982 0.113 3.65046 
696 0.126 4.53871 
1070 0.133 5.05702 
711 0.1355 5.24892 
988 0.144 5.92811 
1020 0.1495 6.3896 
798 0.143 5.84606 
1064 0.1315 4.94359 
658 0.125 4.46695 
930 0.139 5.52358 
785 0.1475 6.21978 
684 0.1375 5.40501 
809 0.113 3.65046 
1022 0.131 4.90607 
838 0.1235 4.36039 
864 0.1435 5.88701 
801 0.11 3.45921 
797 0.111 3.52239 
836 0.1215 4.2203 
740 0.133 5.05702 
1061 0.1195 4.08251 
698 0.125 4.46695 
815 0.1455 6.05226 
1023 0.1275 4.64742 
880 0.102 2.97435 
1078 0.1465 6.13573 
1001 0.126 4.53871 
1046 0.12 4.11674 
918 0.133 5.05702 
752 0.145 6.01073 
968 0.1395 5.56339 
683 0.1205 4.15112 
962 0.1485 6.30441 
663 0.1285 4.7206 
786 0.109 3.3966 
669 0.129 4.75741 
1010 0.113 3.65046 
807 0.139 5.52358 
659 0.131 4.90607 
958 0.1015 2.94526 
1056 0.142 5.76458 
665 0.1175 3.947 
819 0.1435 5.88701 
1030 0.1325 5.01907 
824 0.108 3.33456 
808 0.108 3.33456 
804 0.1435 5.88701 
676 0.1295 4.79436 
1016 0.1165 3.8801 
775 0.1155 3.81378 
678 0.12 4.11674 
746 0.1345 5.17173 
981 0.148 6.26202 
718 0.139 5.52358 
1053 0.129 4.75741 
768 0.11 3.45921 
769 0.111 3.52239 
1002 0.1345 5.17173 
713 0.1 2.85885 
1069 0.139 5.52358 
908 0.116 3.84687 
1012 0.145 6.01073 
910 0.129 4.75741 
875 0.133 5.05702 
947 0.128 4.68394 
923 0.123 4.32515 
883 0.129 4.75741 
817 0.1225 4.29006 
755 0.108 3.33456 
980 0.1465 6.13573 
1038 0.1495 6.3896 
1034 0.1485 6.30441 
1039 0.132 4.98126 
959 0.138 5.44439 
271 0.144 5.92811 
407 0.141 5.68368 
457 0.14 5.60334 
460 0.1095 3.42783 
595 0.109 3.3966 
313 0.145 6.01073 
582 0.1115 3.55419 
650 0.1245 4.43129 
229 0.102 2.97435 
642 0.138 5.44439 
622 0.113 3.65046 
315 0.1165 3.8801 
577 0.145 6.01073 
225 0.149 6.34693 
507 0.1465 6.13573 
401 0.103 3.03295 
631 0.137 5.36577 
377 0.1495 6.3896 
331 0.1315 4.94359 
311 0.134 5.13335 
488 0.144 5.92811 
280 0.15 6.43241 
525 0.11 3.45921 
422 0.111 3.52239 
312 0.144 5.92811 
533 0.1395 5.56339 
269 0.11 3.45921 
614 0.1115 3.55419 
571 0.1155 3.81378 
504 0.144 5.92811 
567 0.1085 3.36551 
544 0.132 4.98126 
352 0.127 4.61104 
226 0.1375 5.40501 
629 0.1345 5.17173 
282 0.1395 5.56339 
292 0.1225 4.29006 
294 0.113 3.65046 
263 0.123 4.32515 
526 0.131 4.90607 
448 0.149 6.34693 
276 0.1075 3.30376 
361 0.1485 6.30441 
649 0.127 4.61104 
514 0.1385 5.48392 
436 0.123 4.32515 
438 0.143 5.84606 
256 0.13 4.83146 
557 0.119 4.04842 
475 0.1345 5.17173 
297 0.1075 3.30376 
465 0.138 5.44439 
236 0.1265 4.5748 
621 0.1125 3.61823 
288 0.1325 5.01907 
542 0.1355 5.24892 
409 0.147 6.17769 
278 0.1395 5.56339 
446 0.133 5.05702 
601 0.1235 4.36039 
626 0.124 4.39577 
486 0.1415 5.72406 
478 0.1485 6.30441 
430 0.1445 5.96935 
506 0.118 3.98066 
416 0.1365 5.32668 
594 0.103 3.03295 
441 0.1345 5.17173 
367 0.133 5.05702 
334 0.1265 4.5748 
318 0.116 3.84687 
492 0.1295 4.79436 
405 0.148 6.26202 
512 0.138 5.44439 
425 0.1495 6.3896 
517 0.1395 5.56339 
539 0.1085 3.36551 
342 0.1475 6.21978 
183 0.1355 5.24892 
167 0.149 6.34693 
44 0.149 6.34693 
131 0.1415 5.72406 
136 0.1385 5.48392 
178 0.129 4.75741 
148 0.111 3.52239 
169 0.1025 3.00358 
199 0.1295 4.79436 
133 0.146 6.09392 
15 0.1265 4.5748 
84 0.1295 4.79436 
68 0.1235 4.36039 
196 0.131 4.90607 
86 0.1385 5.48392 
98 0.1185 4.01447 
181 0.107 3.2731 
160 0.102 2.97435 
58 0.135 5.21025 
190 0.1255 4.50276 
126 0.1395 5.56339 
155 0.134 5.13335 
103 0.149 6.34693 
176 0.121 4.18564 
89 0.1445 5.96935 
43 0.119 4.04842 
67 0.104 3.09213 
195 0.1175 3.947 
172 0.1005 2.88751 
187 0.136 5.28773 
9 0.1495 6.3896 
215 0.15 6.43241 
170 0.105 3.15188 
36 0.1335 5.09511 
147 0.1115 3.55419 
51 0.111 3.52239 
69 0.1045 3.12193 
41 0.141 5.68368 
1295 0.1105 3.49073 
1231 0.1035 3.06247 
1215 0.1055 3.18197 
1216 0.1105 3.49073 
1362 0.1445 5.96935 
1307 0.1305 4.86869 
1403 0.125 4.46695 
1321 0.1135 3.68284 
1298 0.1165 3.8801 
1272 0.12 4.11674 
1247 0.1015 2.94526 
1364 0.129 4.75741 
1277 0.119 4.04842 
1287 0.11 3.45921 
1374 0.1495 6.3896 
1232 0.142 5.76458 
1347 0.108 3.33456 
1380 0.1485 6.30441 
1354 0.115 3.78083 
1290 0.119 4.04842 
1306 0.137 5.36577 
1358 0.118 3.98066 
1192 0.125 4.46695 
1318 0.1345 5.17173 
1425 0.143 5.84606 
1110 0.109 3.3966 
1223 0.1485 6.30441 
1244 0.1275 4.64742 
1133 0.119 4.04842 
1150 0.1375 5.40501 
1419 0.1175 3.947 
1169 0.1395 5.56339 
1353 0.148 6.26202 
1195 0.1075 3.30376 
1394 0.1245 4.43129 
1116 0.102 2.97435 
1100 0.1035 3.06247 
1092 0.1315 4.94359 
1393 0.11 3.45921 
1320 0.136 5.28773 
1280 0.1165 3.8801 
1098 0.1345 5.17173 
1131 0.1365 5.32668 
1346 0.125 4.46695 
1127 0.1195 4.08251 
1377 0.1015 2.94526 
1225 0.119 4.04842 
1330 0.112 3.58614 
1140 0.1245 4.43129 
1107 0.1145 3.74802 
1224 0.114 3.71536 
1268 0.124 4.39577 
1363 0.1325 5.01907 
1427 0.1225 4.29006 
1400 0.1445 5.96935 
1292 0.102 2.97435 
1202 0.1415 5.72406 
1125 0.137 5.36577 
1275 0.1275 4.64742 
1205 0.115 3.78083 
1111 0.1365 5.32668 
1089 0.1145 3.74802 
828 0.114 3.71536 
892 0.14 5.60334 
794 0.112 3.58614 
957 0.1415 5.72406 
751 0.1445 5.96935 
979 0.103 3.03295 
675 0.103 3.03295 
976 0.113 3.65046 
1036 0.104 3.09213 
970 0.12 4.11674 
911 0.1395 5.56339 
859 0.135 5.21025 
884 0.113 3.65046 
850 0.1225 4.29006 
853 0.1265 4.5748 
820 0.117 3.91348 
926 0.144 5.92811 
792 0.1415 5.72406 
833 0.121 4.18564 
777 0.101 2.91631 
952 0.128 4.68394 
921 0.1085 3.36551 
975 0.12 4.11674 
974 0.1285 4.7206 
896 0.135 5.21025 
826 0.125 4.46695 
796 0.1165 3.8801 
996 0.14 5.60334 
1044 0.14 5.60334 
841 0.105 3.15188 
936 0.1255 4.50276 
742 0.144 5.92811 
882 0.1065 3.24258 
734 0.106 3.2122 
1050 0.1295 4.79436 
1055 0.1445 5.96935 
738 0.114 3.71536 
736 0.1085 3.36551 
735 0.1445 5.96935 
733 0.1105 3.49073 
877 0.118 3.98066 
1081 0.1215 4.2203 
1060 0.141 5.68368 
1041 0.1295 4.79436 
1028 0.1255 4.50276 
900 0.1105 3.49073 
1084 0.146 6.09392 
811 0.1005 2.88751 
750 0.138 5.44439 
986 0.126 4.53871 
847 0.113 3.65046 
1071 0.141 5.68368 
1021 0.1125 3.61823 
1072 0.1475 6.21978 
732 0.1225 4.29006 
917 0.1295 4.79436 
739 0.104 3.09213 
1085 0.1325 5.01907 
842 0.113 3.65046 
702 0.101 2.91631 
844 0.101 2.91631 
780 0.1325 5.01907 
897 0.118 3.98066 
1047 0.1335 5.09511 
939 0.114 3.71536 
885 0.113 3.65046 
941 0.13 4.83146 
1004 0.1445 5.96935 
865 0.111 3.52239 
723 0.103 3.03295 
872 0.1135 3.68284 
760 0.124 4.39577 
748 0.1015 2.94526 
890 0.135 5.21025 
887 0.1225 4.29006 
399 0.12 4.11674 
295 0.1455 6.05226 
398 0.1495 6.3896 
385 0.144 5.92811 
254 0.1015 2.94526 
534 0.101 2.91631 
414 0.144 5.92811 
638 0.102 2.97435 
381 0.1495 6.3896 
327 0.1395 5.56339 
362 0.1155 3.81378 
417 0.1395 5.56339 
386 0.1295 4.79436 
431 0.122 4.25511 
383 0.1385 5.48392 
393 0.122 4.25511 
421 0.1115 3.55419 
415 0.1475 6.21978 
307 0.15 6.43241 
608 0.119 4.04842 
502 0.137 5.36577 
605 0.1115 3.55419 
369 0.1465 6.13573 
301 0.146 6.09392 
375 0.1215 4.2203 
326 0.146 6.09392 
530 0.1245 4.43129 
592 0.147 6.17769 
470 0.1125 3.61823 
242 0.104 3.09213 
463 0.1125 3.61823 
651 0.113 3.65046 
253 0.125 4.46695 
593 0.1405 5.64344 
556 0.1365 5.32668 
570 0.1055 3.18197 
258 0.112 3.58614 
619 0.14 5.60334 
228 0.1375 5.40501 
620 0.139 5.52358 
249 0.146 6.09392 
639 0.1375 5.40501 
241 0.1075 3.30376 
257 0.131 4.90607 
303 0.1325 5.01907 
603 0.1475 6.21978 
623 0.14 5.60334 
628 0.127 4.61104 
591 0.1085 3.36551 
578 0.1305 4.86869 
558 0.149 6.34693 
454 0.138 5.44439 
335 0.137 5.36577 
588 0.1235 4.36039 
259 0.1125 3.61823 
290 0.109 3.3966 
233 0.104 3.09213 
609 0.1365 5.32668 
384 0.148 6.26202 
472 0.1425 5.80525 
615 0.1465 6.13573 
573 0.1345 5.17173 
469 0.1445 5.96935 
217 0.147 6.17769 
640 0.12 4.11674 
424 0.106 3.2122 
262 0.121 4.18564 
498 0.1465 6.13573 
347 0.142 5.76458 
230 0.1255 4.50276 
648 0.143 5.84606 
305 0.1395 5.56339 
520 0.121 4.18564 
468 0.141 5.68368 
636 0.105 3.15188 
489 0.1405 5.64344 
585 0.1085 3.36551 
450 0.137 5.36577 
522 0.124 4.39577 
238 0.127 4.61104 
580 0.1035 3.06247 
596 0.1315 4.94359 
426 0.1205 4.15112 
345 0.108 3.33456 
560 0.1425 5.80525 
284 0.123 4.32515 
298 0.13 4.83146 
209 0.121 4.18564 
129 0.1425 5.80525 
29 0.149 6.34693 
27 0.147 6.17769 
141 0.1185 4.01447 
140 0.111 3.52239 
179 0.1025 3.00358 
80 0.123 4.32515 
182 0.112 3.58614 
88 0.1265 4.5748 
142 0.115 3.78083 
62 0.1195 4.08251 
118 0.11 3.45921 
53 0.1215 4.2203 
112 0.1325 5.01907 
120 0.1405 5.64344 
180 0.1305 4.86869 
94 0.129 4.75741 
77 0.1285 4.7206 
113 0.108 3.33456 
16 0.141 5.68368 
3 0.1145 3.74802 
117 0.1105 3.49073 
83 0.1355 5.24892 
87 0.114 3.71536 
177 0.104 3.09213 
20 0.108 3.33456 
149 0.1115 3.55419 
114 0.1435 5.88701 
146 0.107 3.2731 
64 0.106 3.2122 
72 0.1105 3.49073 
143 0.1025 3.00358 
21 0.142 5.76458 
39 0.126 4.53871 
1387 0.1135 3.68284 
1410 0.125 4.46695 
1352 0.135 5.21025 
1401 0.1045 3.12193 
1249 0.1195 4.08251 
1262 0.1095 3.42783 
1226 0.101 2.91631 
1218 0.1465 6.13573 
1152 0.1435 5.88701 
1147 0.1 2.85885 
1206 0.107 3.2731 
1263 0.1245 4.43129 
1311 0.146 6.09392 
1279 0.1395 5.56339 
1241 0.1465 6.13573 
1409 0.119 4.04842 
1360 0.137 5.36577 
1246 0.103 3.03295 
1242 0.106 3.2122 
1285 0.115 3.78083 
1327 0.11 3.45921 
1261 0.111 3.52239 
1389 0.116 3.84687 
1227 0.147 6.17769 
1407 0.127 4.61104 
1222 0.11 3.45921 
1420 0.1155 3.81378 
1166 0.112 3.58614 
1164 0.127 4.61104 
1303 0.1295 4.79436 
1219 0.126 4.53871 
1163 0.119 4.04842 
1177 0.1005 2.88751 
1185 0.1055 3.18197 
1208 0.114 3.71536 
1086 0.1345 5.17173 
1357 0.1035 3.06247 
1286 0.1105 3.49073 
1370 0.1305 4.86869 
1184 0.107 3.2731 
1129 0.13 4.83146 
1159 0.109 3.3966 
1236 0.118 3.98066 
1103 0.1435 5.88701 
1398 0.101 2.91631 
1415 0.1295 4.79436 
1334 0.1445 5.96935 
1007 0.1255 4.50276 
1008 0.1255 4.50276 
849 0.105 3.15188 
915 0.1365 5.32668 
909 0.1155 3.81378 
857 0.1015 2.94526 
999 0.105 3.15188 
737 0.1355 5.24892 
899 0.115 3.78083 
705 0.119 4.04842 
757 0.1025 3.00358 
790 0.1155 3.81378 
878 0.106 3.2122 
764 0.117 3.91348 
934 0.1425 5.80525 
800 0.103 3.03295 
965 0.1425 5.80525 
960 0.1215 4.2203 
805 0.139 5.52358 
695 0.1395 5.56339 
854 0.1445 5.96935 
823 0.128 4.68394 
843 0.1265 4.5748 
903 0.131 4.90607 
869 0.1265 4.5748 
814 0.1095 3.42783 
1033 0.143 5.84606 
924 0.1305 4.86869 
812 0.1075 3.30376 
677 0.1435 5.88701 
784 0.1475 6.21978 
840 0.1345 5.17173 
834 0.1425 5.80525 
671 0.133 5.05702 
1073 0.1215 4.2203 
971 0.1395 5.56339 
989 0.1285 4.7206 
687 0.1045 3.12193 
759 0.12 4.11674 
1067 0.1275 4.64742 
708 0.126 4.53871 
940 0.146 6.09392 
1019 0.123 4.32515 
1029 0.1215 4.2203 
697 0.1315 4.94359 
1054 0.1415 5.72406 
714 0.1195 4.08251 
1017 0.1275 4.64742 
721 0.12 4.11674 
929 0.1335 5.09511 
983 0.14 5.60334 
906 0.1075 3.30376 
995 0.146 6.09392 
978 0.1315 4.94359 
816 0.1275 4.64742 
709 0.135 5.21025 
955 0.1015 2.94526 
1011 0.1185 4.01447 
985 0.118 3.98066 
1082 0.1 2.85885 
772 0.104 3.09213 
531 0.1495 6.3896 
562 0.1265 4.5748 
547 0.147 6.17769 
308 0.146 6.09392 
519 0.103 3.03295 
435 0.1065 3.24258 
497 0.1275 4.64742 
439 0.1495 6.3896 
234 0.1175 3.947 
503 0.145 6.01073 
538 0.139 5.52358 
408 0.149 6.34693 
279 0.138 5.44439 
501 0.119 4.04842 
296 0.1105 3.49073 
462 0.143 5.84606 
396 0.132 4.98126 
483 0.1365 5.32668 
410 0.102 2.97435 
287 0.103 3.03295 
319 0.1035 3.06247 
339 0.128 4.68394 
320 0.1345 5.17173 
365 0.1435 5.88701 
404 0.1375 5.40501 
444 0.1475 6.21978 
568 0.1135 3.68284 
309 0.148 6.26202 
485 0.1485 6.30441 
243 0.135 5.21025 
340 0.1335 5.09511 
351 0.118 3.98066 
379 0.149 6.34693 
293 0.101 2.91631 
521 0.145 6.01073 
572 0.1245 4.43129 
515 0.135 5.21025 
227 0.121 4.18564 
270 0.1185 4.01447 
455 0.1455 6.05226 
442 0.1 2.85885 
477 0.142 5.76458 
252 0.1275 4.64742 
391 0.1395 5.56339 
325 0.143 5.84606 
316 0.148 6.26202 
240 0.1065 3.24258 
598 0.1085 3.36551 
509 0.1075 3.30376 
474 0.1335 5.09511 
496 0.1345 5.17173 
616 0.108 3.33456 
569 0.1015 2.94526 
275 0.126 4.53871 
586 0.1475 6.21978 
599 0.1275 4.64742 
535 0.121 4.18564 
548 0.1335 5.09511 
513 0.1115 3.55419 
464 0.1445 5.96935 
564 0.15 6.43241 
52 0.1175 3.947 
60 0.1315 4.94359 
56 0.108 3.33456 
108 0.1005 2.88751 
73 0.1145 3.74802 
26 0.12 4.11674 
128 0.104 3.09213 
173 0.1275 4.64742 
7 0.114 3.71536 
13 0.142 5.76458 
95 0.149 6.34693 
11 0.119 4.04842 
201 0.1025 3.00358 
166 0.116 3.84687 
18 0.141 5.68368 
185 0.133 5.05702 
214 0.1075 3.30376 
134 0.123 4.32515 
116 0.1035 3.06247 
105 0.1005 2.88751 
213 0.109 3.3966 
33 0.1085 3.36551 
101 0.1185 4.01447 
198 0.133 5.05702 
96 0.1305 4.86869 
207 0.1465 6.13573 
102 0.118 3.98066 
35 0.138 5.44439 
90 0.106 3.2122 
79 0.1225 4.29006 
1134 0.11 3.45921 
1281 0.1275 4.64742 
1154 0.1405 5.64344 
1203 0.108 3.33456 
1289 0.145 6.01073 
1350 0.119 4.04842 
1384 0.1315 4.94359 
1404 0.1275 4.64742 
1101 0.143 5.84606 
1264 0.1155 3.81378 
1291 0.1055 3.18197 
1109 0.1 2.85885 
1341 0.1495 6.3896 
1251 0.124 4.39577 
1172 0.139 5.52358 
1271 0.1425 5.80525 
1141 0.1325 5.01907 
1255 0.1105 3.49073 
1243 0.1115 3.55419 
1087 0.1295 4.79436 
1230 0.131 4.90607 
1383 0.129 4.75741 
1196 0.1485 6.30441 
1406 0.1445 5.96935 
1355 0.13 4.83146 
1388 0.141 5.68368 
1345 0.1015 2.94526 
1269 0.115 3.78083 
1142 0.1285 4.7206 
1411 0.1215 4.2203 
1282 0.1485 6.30441 
1266 0.1235 4.36039 
1294 0.1125 3.61823 
1414 0.1395 5.56339 
1186 0.15 6.43241 
1220 0.1465 6.13573 
1417 0.109 3.3966 
1189 0.127 4.61104 
1158 0.1135 3.68284 
1228 0.1085 3.36551 
1301 0.1365 5.32668 
1361 0.1205 4.15112 
1146 0.1275 4.64742 
1235 0.147 6.17769 
1310 0.1375 5.40501 
1342 0.1345 5.17173 
1300 0.1105 3.49073 
1204 0.125 4.46695 
1200 0.1095 3.42783 
1392 0.128 4.68394 
1326 0.1035 3.06247 
1273 0.134 5.13335 
1305 0.1355 5.24892 
1314 0.1305 4.86869 
1288 0.1025 3.00358 
1245 0.1235 4.36039 
1168 0.104 3.09213 
1115 0.1115 3.55419 
1412 0.102 2.97435 
1418 0.1315 4.94359 
1315 0.1345 5.17173 
1214 0.125 4.46695 
1167 0.134 5.13335 
1043 0.136 5.28773 
791 0.1485 6.30441 
852 0.1025 3.00358 
730 0.1165 3.8801 
894 0.113 3.65046 
937 0.105 3.15188 
951 0.1265 4.5748 
946 0.1225 4.29006 
1066 0.146 6.09392 
954 0.11 3.45921 
1026 0.123 4.32515 
1083 0.126 4.53871 
920 0.105 3.15188 
948 0.1255 4.50276 
943 0.111 3.52239 
657 0.1155 3.81378 
728 0.1395 5.56339 
758 0.107 3.2731 
660 0.1225 4.29006 
1065 0.1185 4.01447 
1018 0.1265 4.5748 
725 0.1485 6.30441 
765 0.108 3.33456 
700 0.1475 6.21978 
895 0.1075 3.30376 
673 0.1195 4.08251 
945 0.1015 2.94526 
845 0.1005 2.88751 
867 0.107 3.2731 
928 0.139 5.52358 
856 0.125 4.46695 
927 0.123 4.32515 
1068 0.111 3.52239 
776 0.11 3.45921 
763 0.1055 3.18197 
1051 0.148 6.26202 
1027 0.148 6.26202 
966 0.1025 3.00358 
851 0.1075 3.30376 
832 0.116 3.84687 
876 0.131 4.90607 
967 0.1185 4.01447 
703 0.142 5.76458 
715 0.142 5.76458 
1075 0.1395 5.56339 
720 0.109 3.3966 
662 0.1395 5.56339 
1049 0.131 4.90607 
692 0.1175 3.947 
881 0.138 5.44439 
821 0.115 3.78083 
858 0.124 4.39577 
726 0.132 4.98126 
781 0.1235 4.36039 
827 0.1295 4.79436 
848 0.126 4.53871 
893 0.1335 5.09511 
868 0.1485 6.30441 
685 0.14 5.60334 
1048 0.142 5.76458 
706 0.128 4.68394 
1063 0.1445 5.96935 
689 0.109 3.3966 
1057 0.1315 4.94359 
938 0.109 3.3966 
743 0.1325 5.01907 
987 0.121 4.18564 
762 0.1005 2.88751 
803 0.113 3.65046 
837 0.123 4.32515 
835 0.12 4.11674 
904 0.1385 5.48392 
756 0.112 3.58614 
719 0.116 3.84687 
1042 0.1175 3.947 
862 0.1445 5.96935 
753 0.1425 5.80525 
722 0.127 4.61104 
688 0.1085 3.36551 
1005 0.132 4.98126 
346 0.1495 6.3896 
652 0.128 4.68394 
359 0.134 5.13335 
633 0.126 4.53871 
247 0.116 3.84687 
641 0.119 4.04842 
494 0.139 5.52358 
511 0.1375 5.40501 
510 0.14 5.60334 
563 0.137 5.36577 
606 0.1145 3.74802 
576 0.1255 4.50276 
597 0.1385 5.48392 
600 0.143 5.84606 
617 0.148 6.26202 
491 0.137 5.36577 
551 0.116 3.84687 
216 0.1415 5.72406 
274 0.1295 4.79436 
543 0.1345 5.17173 
267 0.1315 4.94359 
368 0.148 6.26202 
618 0.1345 5.17173 
268 0.134 5.13335 
579 0.119 4.04842 
337 0.139 5.52358 
283 0.149 6.34693 
419 0.149 6.34693 
549 0.1485 6.30441 
452 0.133 5.05702 
378 0.1355 5.24892 
343 0.1455 6.05226 
518 0.148 6.26202 
291 0.1085 3.36551 
653 0.1105 3.49073 
222 0.1305 4.86869 
559 0.104 3.09213 
532 0.1425 5.80525 
363 0.148 6.26202 
550 0.1315 4.94359 
554 0.134 5.13335 
394 0.138 5.44439 
451 0.1205 4.15112 
487 0.1265 4.5748 
602 0.1255 4.50276 
245 0.1095 3.42783 
372 0.1445 5.96935 
250 0.115 3.78083 
374 0.1475 6.21978 
220 0.1015 2.94526 
314 0.12 4.11674 
434 0.137 5.36577 
328 0.146 6.09392 
389 0.145 6.01073 
587 0.127 4.61104 
654 0.124 4.39577 
323 0.1255 4.50276 
357 0.129 4.75741 
437 0.12 4.11674 
443 0.113 3.65046 
237 0.141 5.68368 
400 0.129 4.75741 
461 0.1245 4.43129 
523 0.1195 4.08251 
355 0.1445 5.96935 
231 0.138 5.44439 
447 0.134 5.13335 
397 0.109 3.3966 
356 0.1295 4.79436 
481 0.1135 3.68284 
382 0.13 4.83146 
373 0.129 4.75741 
251 0.108 3.33456 
645 0.126 4.53871 
395 0.1325 5.01907 
265 0.149 6.34693 
235 0.148 6.26202 
168 0.1055 3.18197 
119 0.123 4.32515 
111 0.1385 5.48392 
55 0.1195 4.08251 
10 0.123 4.32515 
49 0.119 4.04842 
124 0.133 5.05702 
54 0.1465 6.13573 
85 0.1335 5.09511 
115 0.1275 4.64742 
92 0.119 4.04842 
132 0.105 3.15188 
189 0.143 5.84606 
165 0.115 3.78083 
71 0.128 4.68394 
184 0.1465 6.13573 
107 0.101 2.91631 
154 0.135 5.21025 
191 0.1195 4.08251 
74 0.1075 3.30376 
4 0.129 4.75741 
22 0.1095 3.42783 
31 0.1465 6.13573 
19 0.1015 2.94526 
106 0.1005 2.88751 
70 0.129 4.75741 
127 0.102 2.97435 
63 0.138 5.44439 
200 0.1285 4.7206 
47 0.1245 4.43129 
91 0.1425 5.80525 
137 0.141 5.68368 
30 0.1005 2.88751 
206 0.1275 4.64742 
210 0.1225 4.29006 
193 0.104 3.09213 
93 0.1375 5.40501 
212 0.1405 5.64344 
32 0.1375 5.40501 
1428 0.05 0.714712 
1429 0.05 0.714712 
1478 0.05 0.714712 
1479 0.05 0.714712 
1430 0.05 0.714712 
1431 0.05 0.714712 
1480 0.05 0.714712 
1481 0.05 0.714712 
1432 0.05 0.714712 
1433 0.05 0.714712 
1482 0.05 0.714712 
1483 0.05 0.714712 
1434 0.05 0.714712 
1435 0.05 0.714712 
1484 0.05 0.714712 
1485 0.05 0.714712 
1436 0.05 0.714712 
1437 0.05 0.714712 
1486 0.05 0.714712 
1487 0.05 0.714712 
1438 0.05 0.714712 
1439 0.05 0.714712 
1488 0.05 0.714712 
1489 0.05 0.714712 
1440 0.05 0.714712 
1441 0.05 0.714712 
1490 0.05 0.714712 
1491 0.05 0.714712 
1442 0.05 0.714712 
1443 0.05 0.714712 
1492 0.05 0.714712 
1493 0.05 0.714712 
1444 0.05 0.714712 
1445 0.05 0.714712 
1494 0.05 0.714712 
1495 0.05 0.714712 
1446 0.05 0.714712 
1447 0.05 0.714712 
1496 0.05 0.714712 
1497 0.05 0.714712 
1448 0.05 0.714712 
1449 0.05 0.714712 
1498 0.05 0.714712 
1499 0.05 0.714712 
1450 0.05 0.714712 
1451 0.05 0.714712 
1500 0.05 0.714712 
1501 0.05 0.714712 
1452 0.05 0.714712 
1453 0.05 0.714712 
1502 0.05 0.714712 
1503 0.05 0.714712 
1454 0.05 0.714712 
1455 0.05 0.714712 
1504 0.05 0.714712 
1505 0.05 0.714712 
1456 0.05 0.714712 
1457 0.05 0.714712 
1506 0.05 0.714712 
1507 0.05 0.714712 
1296 0.1445 5.96935 
1108 0.1145 3.74802 
1237 0.1295 4.79436 
1191 0.1245 4.43129 
1395 0.101 2.91631 
1421 0.1155 3.81378 
1399 0.127 4.61104 
1335 0.1385 5.48392 
1221 0.1275 4.64742 
1240 0.1375 5.40501 
1254 0.109 3.3966 
1319 0.1125 3.61823 
1170 0.125 4.46695 
1157 0.121 4.18564 
1207 0.142 5.76458 
1278 0.148 6.26202 
1372 0.1085 3.36551 
1090 0.1085 3.36551 
1162 0.113 3.65046 
1316 0.109 3.3966 
1250 0.106 3.2122 
1368 0.101 2.91631 
1124 0.1295 4.79436 
1126 0.1125 3.61823 
1130 0.117 3.91348 
1145 0.1185 4.01447 
1198 0.141 5.68368 
1161 0.1245 4.43129 
1153 0.1495 6.3896 
1302 0.118 3.98066 
1376 0.1255 4.50276 
1366 0.1045 3.12193 
1323 0.1275 4.64742 
1367 0.1455 6.05226 
1267 0.124 4.39577 
1348 0.1295 4.79436 
1260 0.1045 3.12193 
1351 0.138 5.44439 
1183 0.1145 3.74802 
1137 0.135 5.21025 
1106 0.149 6.34693 
1252 0.1135 3.68284 
1397 0.1175 3.947 
1257 0.112 3.58614 
1312 0.1165 3.8801 
1304 0.1275 4.64742 
1375 0.144 5.92811 
1283 0.1125 3.61823 
1339 0.124 4.39577 
1344 0.109 3.3966 
1426 0.1305 4.86869 
1408 0.105 3.15188 
1390 0.119 4.04842 
1458 0.05 0.714712 
1459 0.05 0.714712 
1508 0.05 0.714712 
1509 0.05 0.714712 
710 0.149 6.34693 
707 0.138 5.44439 
1076 0.144 5.92811 
682 0.1345 5.17173 
839 0.1435 5.88701 
922 0.133 5.05702 
898 0.124 4.39577 
789 0.113 3.65046 
913 0.1365 5.32668 
1079 0.129 4.75741 
990 0.1105 3.49073 
729 0.1035 3.06247 
935 0.1285 4.7206 
731 0.11 3.45921 
1031 0.1475 6.21978 
783 0.138 5.44439 
1015 0.1385 5.48392 
664 0.1285 4.7206 
829 0.1245 4.43129 
914 0.1405 5.64344 
691 0.1215 4.2203 
861 0.104 3.09213 
950 0.139 5.52358 
831 0.1035 3.06247 
933 0.1395 5.56339 
741 0.105 3.15188 
953 0.141 5.68368 
1025 0.129 4.75741 
1003 0.131 4.90607 
661 0.133 5.05702 
788 0.148 6.26202 
1013 0.15 6.43241 
891 0.121 4.18564 
855 0.1235 4.36039 
963 0.142 5.76458 
994 0.137 5.36577 
1037 0.1355 5.24892 
656 0.1355 5.24892 
680 0.1395 5.56339 
672 0.1375 5.40501 
860 0.122 4.25511 
870 0.1325 5.01907 
888 0.133 5.05702 
818 0.11 3.45921 
1062 0.144 5.92811 
886 0.1125 3.61823 
795 0.109 3.3966 
825 0.111 3.52239 
972 0.1445 5.96935 
822 0.11 3.45921 
992 0.129 4.75741 
901 0.129 4.75741 
810 0.1465 6.13573 
694 0.1355 5.24892 
993 0.126 4.53871 
949 0.137 5.36577 
667 0.1025 3.00358 
1080 0.109 3.3966 
799 0.1025 3.00358 
889 0.129 4.75741 
874 0.149 6.34693 
787 0.1145 3.74802 
802 0.1395 5.56339 
830 0.1195 4.08251 
863 0.143 5.84606 
778 0.149 6.34693 
964 0.102 2.97435 
873 0.1195 4.08251 
912 0.1355 5.24892 
997 0.1395 5.56339 
1059 0.1485 6.30441 
931 0.1145 3.74802 
1460 0.05 0.714712 
1461 0.05 0.714712 
1510 0.05 0.714712 
1511 0.05 0.714712 
285 0.1125 3.61823 
324 0.15 6.43241 
380 0.132 4.98126 
565 0.11 3.45921 
306 0.141 5.68368 
471 0.1415 5.72406 
611 0.126 4.53871 
261 0.129 4.75741 
418 0.11 3.45921 
244 0.137 5.36577 
322 0.135 5.21025 
364 0.1435 5.88701 
264 0.116 3.84687 
289 0.1485 6.30441 
273 0.134 5.13335 
632 0.1485 6.30441 
266 0.149 6.34693 
333 0.1495 6.3896 
458 0.1455 6.05226 
500 0.1195 4.08251 
482 0.105 3.15188 
366 0.124 4.39577 
527 0.1305 4.86869 
589 0.1445 5.96935 
392 0.1305 4.86869 