ITEM: TIMESTEP
0
ITEM: NUMBER OF ATOMS
1627
ITEM: BOX BOUNDS ss ss pp
-70.1148 70.1148
3.999 9.001
-0.5 0.5
ITEM: ATOMS id x y vx vy omegaz fx fy tqz c_2b[1] c_2b[2] c_2b[4] c_2a[1] c_2a[2] c_2a[4] 
1528 -70 4 0 0 0 8.0227e-08 0 0 -4.01135e-09 -0 -0 -0 -0 -0 
1529 -70 4.102 0 0 0 8.0227e-08 0 0 -4.01135e-09 -0 -0 -0 -0 -0 
1578 -70.1 4 0 0 0 -8.0227e-08 -0 0 -4.01135e-09 -0 -0 -0 -0 -0 
1579 -70.1 4.102 0 0 0 -8.0227e-08 -0 0 -4.01135e-09 -0 -0 -0 -0 -0 
1530 -70 4.204 0 0 0 8.0227e-08 0 0 -4.01135e-09 -0 -0 -0 -0 -0 
1531 -70 4.306 0 0 0 8.0227e-08 0 0 -4.01135e-09 -0 -0 -0 -0 -0 
1580 -70.1 4.204 0 0 0 -8.0227e-08 -0 0 -4.01135e-09 -0 -0 -0 -0 -0 
1581 -70.1 4.306 0 0 0 -8.0227e-08 -0 0 -4.01135e-09 -0 -0 -0 -0 -0 
1532 -70 4.408 0 0 0 8.0227e-08 0 0 -4.01135e-09 -0 -0 -0 -0 -0 
1533 -70 4.51 0 0 0 8.0227e-08 0 0 -4.01135e-09 -0 -0 -0 -0 -0 
1582 -70.1 4.408 0 0 0 -8.0227e-08 -0 0 -4.01135e-09 -0 -0 -0 -0 -0 
1583 -70.1 4.51 0 0 0 -8.0227e-08 -0 0 -4.01135e-09 -0 -0 -0 -0 -0 
1534 -70 4.612 0 0 0 8.0227e-08 0 0 -4.01135e-09 -0 -0 -0 -0 -0 
1535 -70 4.714 0 0 0 8.0227e-08 0 0 -4.01135e-09 -0 -0 -0 -0 -0 
1584 -70.1 4.612 0 0 0 -8.0227e-08 -0 0 -4.01135e-09 -0 -0 -0 -0 -0 
1585 -70.1 4.714 0 0 0 -8.0227e-08 -0 0 -4.01135e-09 -0 -0 -0 -0 -0 
1536 -70 4.816 0 0 0 8.0227e-08 0 0 -4.01135e-09 -0 -0 -0 -0 -0 
1537 -70 4.918 0 0 0 8.0227e-08 0 0 -4.01135e-09 -0 -0 -0 -0 -0 
1586 -70.1 4.816 0 0 0 -8.0227e-08 -0 0 -4.01135e-09 -0 -0 -0 -0 -0 
1587 -70.1 4.918 0 0 0 -8.0227e-08 -0 0 -4.01135e-09 -0 -0 -0 -0 -0 
1538 -70 5.02 0 0 0 8.0227e-08 0 0 -4.01135e-09 -0 -0 -0 -0 -0 
1539 -70 5.122 0 0 0 8.0227e-08 0 0 -4.01135e-09 -0 -0 -0 -0 -0 
1588 -70.1 5.02 0 0 0 -8.0227e-08 -0 0 -4.01135e-09 -0 -0 -0 -0 -0 
1589 -70.1 5.122 0 0 0 -8.0227e-08 -0 0 -4.01135e-09 -0 -0 -0 -0 -0 
1540 -70 5.224 0 0 0 8.0227e-08 0 0 -4.01135e-09 -0 -0 -0 -0 -0 
1541 -70 5.327 0 0 0 8.0227e-08 0 0 -4.01135e-09 -0 -0 -0 -0 -0 
1590 -70.1 5.224 0 0 0 -8.0227e-08 -0 0 -4.01135e-09 -0 -0 -0 -0 -0 
1591 -70.1 5.327 0 0 0 -8.0227e-08 -0 0 -4.01135e-09 -0 -0 -0 -0 -0 
1542 -70 5.429 0 0 0 8.0227e-08 0 0 -4.01135e-09 -0 -0 -0 -0 -0 
1543 -70 5.531 0 0 0 8.0227e-08 0 0 -4.01135e-09 -0 -0 -0 -0 -0 
1592 -70.1 5.429 0 0 0 -8.0227e-08 -0 0 -4.01135e-09 -0 -0 -0 -0 -0 
1593 -70.1 5.531 0 0 0 -8.0227e-08 -0 0 -4.01135e-09 -0 -0 -0 -0 -0 
1544 -70 5.633 0 0 0 8.0227e-08 0 0 -4.01135e-09 -0 -0 -0 -0 -0 
1545 -70 5.735 0 0 0 8.0227e-08 0 0 -4.01135e-09 -0 -0 -0 -0 -0 
1594 -70.1 5.633 0 0 0 -8.0227e-08 -0 0 -4.01135e-09 -0 -0 -0 -0 -0 
1595 -70.1 5.735 0 0 0 -8.0227e-08 -0 0 -4.01135e-09 -0 -0 -0 -0 -0 
1546 -70 5.837 0 0 0 8.0227e-08 0 0 -4.01135e-09 -0 -0 -0 -0 -0 
1547 -70 5.939 0 0 0 8.0227e-08 0 0 -4.01135e-09 -0 -0 -0 -0 -0 
1596 -70.1 5.837 0 0 0 -8.0227e-08 -0 0 -4.01135e-09 -0 -0 -0 -0 -0 
1597 -70.1 5.939 0 0 0 -8.0227e-08 -0 0 -4.01135e-09 -0 -0 -0 -0 -0 
1548 -70 6.041 0 0 0 8.0227e-08 0 0 -4.01135e-09 -0 -0 -0 -0 -0 
1549 -70 6.143 0 0 0 8.0227e-08 0 0 -4.01135e-09 -0 -0 -0 -0 -0 
1598 -70.1 6.041 0 0 0 -8.0227e-08 -0 0 -4.01135e-09 -0 -0 -0 -0 -0 
1599 -70.1 6.143 0 0 0 -8.0227e-08 -0 0 -4.01135e-09 -0 -0 -0 -0 -0 
1550 -70 6.245 0 0 0 8.0227e-08 0 0 -4.01135e-09 -0 -0 -0 -0 -0 
1551 -70 6.347 0 0 0 8.0227e-08 0 0 -4.01135e-09 -0 -0 -0 -0 -0 
1600 -70.1 6.245 0 0 0 -8.0227e-08 -0 0 -4.01135e-09 -0 -0 -0 -0 -0 
1601 -70.1 6.347 0 0 0 -8.0227e-08 -0 0 -4.01135e-09 -0 -0 -0 -0 -0 
1552 -70 6.449 0 0 0 8.0227e-08 0 0 -4.01135e-09 -0 -0 -0 -0 -0 
1553 -70 6.551 0 0 0 8.0227e-08 0 0 -4.01135e-09 -0 -0 -0 -0 -0 
1602 -70.1 6.449 0 0 0 -8.0227e-08 -0 0 -4.01135e-09 -0 -0 -0 -0 -0 
1603 -70.1 6.551 0 0 0 -8.0227e-08 -0 0 -4.01135e-09 -0 -0 -0 -0 -0 
1554 -70 6.653 0 0 0 8.0227e-08 0 0 -4.01135e-09 -0 -0 -0 -0 -0 
1555 -70 6.755 0 0 0 8.0227e-08 0 0 -4.01135e-09 -0 -0 -0 -0 -0 
1604 -70.1 6.653 0 0 0 -8.0227e-08 -0 0 -4.01135e-09 -0 -0 -0 -0 -0 
1605 -70.1 6.755 0 0 0 -8.0227e-08 -0 0 -4.01135e-09 -0 -0 -0 -0 -0 
1556 -70 6.857 0 0 0 8.0227e-08 0 0 -4.01135e-09 -0 -0 -0 -0 -0 
1557 -70 6.959 0 0 0 8.0227e-08 0 0 -4.01135e-09 -0 -0 -0 -0 -0 
1606 -70.1 6.857 0 0 0 -8.0227e-08 -0 0 -4.01135e-09 -0 -0 -0 -0 -0 
1607 -70.1 6.959 0 0 0 -8.0227e-08 -0 0 -4.01135e-09 -0 -0 -0 -0 -0 
1558 -70 7.061 0 0 0 8.0227e-08 0 0 -4.01135e-09 -0 -0 -0 -0 -0 
1559 -70 7.163 0 0 0 8.0227e-08 0 0 -4.01135e-09 -0 -0 -0 -0 -0 
1608 -70.1 7.061 0 0 0 -8.0227e-08 -0 0 -4.01135e-09 -0 -0 -0 -0 -0 
1609 -70.1 7.163 0 0 0 -8.0227e-08 -0 0 -4.01135e-09 -0 -0 -0 -0 -0 
1337 -67.762 7.046 0 0 0 0 4.52557 0 -0 -0 -0 -0 -0 -0 
1194 -67.54 7.119 0 0 0 0 4.97684 0 -0 -0 -0 -0 -0 -0 
1211 -67.066 7.107 0 0 0 0 7.19692 0 -0 -0 -0 -0 -0 -0 
1113 -66.783 7.185 0 0 0 0 7.97442 0 -0 -0 -0 -0 -0 -0 
1175 -66.505 7.132 0 0 0 0 3.90747 0 -0 -0 -0 -0 -0 -0 
1117 -66.203 7.183 0 0 0 0 6.03584 0 -0 -0 -0 -0 -0 -0 
1276 -65.469 7.066 0 0 0 752.385 -803.919 0 -71.8528 -83.5817 77.4957 -0 -0 -0 
1233 -65.169 7.092 0 0 0 0 5.362 0 -0 -0 -0 -0 -0 -0 
1187 -64.89 7.122 0 0 0 0 4.72804 0 -0 -0 -0 -0 -0 -0 
1114 -64.652 7.183 0 0 0 0 5.89788 0 -0 -0 -0 -0 -0 -0 
1135 -64.375 7.171 0 0 0 -5233.53 3655.22 0 -544.287 -264.507 379.431 -0 -0 -0 
1396 -64.167 7.026 0 0 0 5233.53 -3643.69 0 -544.287 -264.507 379.431 -0 -0 -0 
1128 -63.842 7.176 0 0 0 0 5.27517 0 -0 -0 -0 -0 -0 -0 
1104 -63.572 7.188 0 0 0 2048.81 -2516.29 0 -146.49 -221.901 180.295 -0 -0 -0 
1132 -63.341 7.172 0 0 0 -9199.15 -1461.48 0 -1039.5 -26.3763 -165.585 -0 -0 -0 
1371 -62.917 7.033 0 0 0 -72.2871 -360.646 0 -1.84332 -47.5401 -9.36119 -0 -0 -0 
1182 -62.676 7.125 0 0 0 0 5.3185 0 -0 -0 -0 -0 -0 -0 
1138 -62.408 7.165 0 0 0 0 7.76319 0 -0 -0 -0 -0 -0 -0 
1099 -62.113 7.19 0 0 0 345.434 -485.713 0 -29.0164 -59.2172 41.452 -0 -0 -0 
1105 -61.616 7.187 0 0 0 1091.41 -247.098 0 -131.514 -7.10093 30.5594 -0 -0 -0 
1139 -61.372 7.164 0 0 0 0 4.17231 0 -0 -0 -0 -0 -0 -0 
1378 -61.177 7.031 0 0 0 -465.639 -8251.62 0 -3.49229 -1098.23 -61.93 -0 -0 -0 
1356 -60.941 7.038 0 0 0 0 4.21085 0 -0 -0 -0 -0 -0 -0 
1171 -60.745 7.138 0 0 0 0 4.32754 0 -0 -0 -0 -0 -0 -0 
1373 -60.303 7.032 0 0 0 0 4.24957 0 -0 -0 -0 -0 -0 -0 
1199 -60.073 7.115 0 0 0 0 6.08218 0 -0 -0 -0 -0 -0 -0 
1382 -59.652 7.03 0 0 0 0 4.72804 0 -0 -0 -0 -0 -0 -0 
1329 -59.133 7.049 0 0 0 -25.1819 -156.462 0 -0.491046 -20.6649 -3.1855 -0 -0 -0 
1256 -58.88 7.078 0 0 0 0 4.48561 0 -0 -0 -0 -0 -0 -0 
1165 -58.373 7.142 0 0 0 -381.922 -4087.19 0 -129.883 -472.913 -61.6315 -0 -0 -0 
1173 -57.776 7.136 0 0 0 0 4.56571 0 -0 -0 -0 -0 -0 -0 
1234 -57.313 7.092 0 0 0 -1346.17 -7708.89 0 -1434.74 -537.93 -90.7463 -0 -0 -0 
1391 -56.965 7.026 0 0 0 0 4.97684 0 -0 -0 -0 -0 -0 -0 
1248 -55.107 7.081 0 0 0 0 7.92135 0 -0 -0 -0 -0 -0 -0 
1212 -54.814 7.107 0 0 0 -498.049 -738.247 0 -40.591 -90.9566 -60.762 -0 -0 -0 
1229 -54.541 7.093 0 0 0 0 5.85225 0 -0 -0 -0 -0 -0 -0 
1239 -54.274 7.088 0 0 0 0 5.85225 0 -0 -0 -0 -0 -0 -0 
1112 -54.039 7.185 0 0 0 0 5.53779 0 -0 -0 -0 -0 -0 -0 
1369 -53.62 7.033 0 0 0 0 4.52557 0 -0 -0 -0 -0 -0 -0 
1385 -53.358 7.028 0 0 0 0 7.76319 0 -0 -0 -0 -0 -0 -0 
1365 -53.088 7.034 0 0 0 0 5.27517 0 -0 -0 -0 -0 -0 -0 
1324 -52.866 7.05 0 0 0 0 3.54419 0 -0 -0 -0 -0 -0 -0 
1333 -52.474 7.048 0 0 0 -144.939 -6103.88 0 -0.434817 -773.116 -18.3348 -0 -0 -0 
1309 -52.046 7.054 0 0 0 0 3.90747 0 -0 -0 -0 -0 -0 -0 
1386 -51.8 7.028 0 0 0 0 4.93493 0 -0 -0 -0 -0 -0 -0 
1413 -51.271 7.019 0 0 0 0 3.87034 0 -0 -0 -0 -0 -0 -0 
1178 -50.831 7.13 0 0 0 -1841.62 -371.095 0 -238.49 -9.98671 -48.803 -0 -0 -0 
1118 -50.572 7.183 0 0 0 6183.75 -4425.52 0 -642.308 -505.316 398.436 -0 -0 -0 
1176 -49.926 7.132 0 0 0 0 4.64652 0 -0 -0 -0 -0 -0 -0 
1136 -49.448 7.171 0 0 0 1355.77 -4493.27 0 -46.7741 -515.202 155.236 -0 -0 -0 
1274 -49.145 7.069 0 0 0 792.083 -2133.77 0 -31.6833 -230.971 85.5449 -0 -0 -0 
1253 -48.751 7.079 0 0 0 1387.81 -1204.88 0 -147.108 -112.023 128.372 -0 -0 -0 
1210 -48.208 7.108 0 0 0 0 7.76319 0 -0 -0 -0 -0 -0 -0 
1174 -47.951 7.135 0 0 0 0 4.28847 0 -0 -0 -0 -0 -0 -0 
1121 -47.6 7.181 0 0 0 -2013.97 -1542.16 0 -222.543 -131.682 -171.187 -0 -0 -0 
1094 -47.081 7.195 0 0 0 -2234.65 -890.845 0 -278.213 -44.8724 -111.732 -0 -0 -0 
1299 -46.877 7.06 0 0 0 0 4.01991 0 -0 -0 -0 -0 -0 -0 
1560 -70 7.265 0 0 0 8.0227e-08 0 0 -4.01135e-09 -0 -0 -0 -0 -0 
1561 -70 7.367 0 0 0 8.0227e-08 0 0 -4.01135e-09 -0 -0 -0 -0 -0 
1610 -70.1 7.265 0 0 0 -8.0227e-08 -0 0 -4.01135e-09 -0 -0 -0 -0 -0 
1611 -70.1 7.367 0 0 0 -8.0227e-08 -0 0 -4.01135e-09 -0 -0 -0 -0 -0 
907 -67.714 7.256 0 0 0 0 3.68737 0 -0 -0 -0 -0 -0 -0 
973 -67.313 7.241 0 0 0 -2352.59 -10212.2 0 -75.2827 -1420.45 -327.009 -0 -0 -0 
679 -66.997 7.381 0 0 0 0 -52.5447 0 -0 -0 -0 -0 -0 -0 
727 -66.568 7.334 0 0 0 3312.8 -4167.04 0 -539.889 -266.331 153.173 -0 -0 -0 
998 -65.935 7.233 0 0 0 0 7.09626 0 -0 -0 -0 -0 -0 -0 
846 -65.66 7.272 0 0 0 -752.385 817.933 0 -71.8528 -83.5817 77.4957 -0 -0 -0 
866 -65.32 7.268 0 0 0 -1200.66 -2602.06 0 -52.8289 -248.87 -114.663 -0 -0 -0 
744 -65.045 7.314 0 0 0 0 6.08218 0 -0 -0 -0 -0 -0 -0 
699 -63.715 7.364 0 0 0 -2048.81 2525.48 0 -146.49 -221.901 180.295 -0 -0 -0 
690 -63.275 7.374 0 0 0 -163.685 -1232.16 0 -2.37344 -135.354 -17.9236 -0 -0 -0 
1077 -63.115 7.208 0 0 0 9199.15 1470.89 0 -1039.5 -26.3763 -165.585 -0 -0 -0 
782 -62.866 7.292 0 0 0 72.2871 373.003 0 -1.84332 -47.5401 -9.36119 -0 -0 -0 
961 -61.857 7.243 0 0 0 -1091.41 258.051 0 -131.514 -7.10093 30.5594 -0 -0 -0 
771 -61.162 7.297 0 0 0 465.639 8264.28 0 -3.49229 -1098.23 -61.93 -0 -0 -0 
944 -60.927 7.247 0 0 0 0 3.54419 0 -0 -0 -0 -0 -0 -0 
701 -60.746 7.363 0 0 0 3700.4 -1862.89 0 -395.943 -100.845 199.822 -0 -0 -0 
905 -60.512 7.257 0 0 0 -5693.87 -4114 0 -840.711 -576.451 181.517 -0 -0 -0 
969 -60.27 7.241 0 0 0 6712.35 -440.176 0 -812.194 -3.55033 53.6988 -0 -0 -0 
668 -60.077 7.386 0 0 0 0 -51.7736 0 -0 -0 -0 -0 -0 -0 
1052 -59.823 7.218 0 0 0 -107.236 -2153.25 0 -0.750655 -304.567 -15.1203 -0 -0 -0 
991 -59.585 7.235 0 0 0 -1977.55 -7127.61 0 -65.2591 -848.608 -235.328 -0 -0 -0 
956 -59.344 7.244 0 0 0 -4994.21 -1151.66 0 -624.276 -33.6011 -144.832 -0 -0 -0 
766 -59.094 7.302 0 0 0 2773.08 -2122.23 0 -767.408 -390.549 -367.033 -0 -0 -0 
773 -58.87 7.297 0 0 0 4494.68 -9263.37 0 -217.992 -926.739 449.468 -0 -0 -0 
1074 -58.665 7.21 0 0 0 0 4.68719 0 -0 -0 -0 -0 -0 -0 
712 -58.492 7.352 0 0 0 -884.531 1564.81 0 -52.6296 -163.898 92.8758 -0 -0 -0 
670 -58.251 7.386 0 0 0 3500.48 -342.515 0 -509.746 -751.33 277.759 -0 -0 -0 
1058 -58.025 7.215 0 0 0 999.006 -2745.17 0 -124.887 -329.517 80.5152 -0 -0 -0 
686 -57.789 7.375 0 0 0 -2913.28 -1605.88 0 -329.2 -100.708 -182.08 -0 -0 -0 
1000 -57.548 7.232 0 0 0 -9731.47 806.121 0 -1143.45 -420.816 93.977 -0 -0 -0 
681 -57.313 7.378 0 0 0 4106.48 2495.72 0 -482.511 -186.242 -299.773 -0 -0 -0 
1006 -57.091 7.231 0 0 0 6971.17 4370.1 0 -773.799 -303.356 -484.496 -0 -0 -0 
761 -56.846 7.304 0 0 0 0 6.26931 0 -0 -0 -0 -0 -0 -0 
932 -56.573 7.25 0 0 0 -1460.18 -2106.68 0 -119.005 -249.468 -172.302 -0 -0 -0 
984 -56.297 7.237 0 0 0 0 5.98968 0 -0 -0 -0 -0 -0 -0 
1032 -56.028 7.224 0 0 0 1835.61 -3857.6 0 -104.63 -463.734 220.273 -0 -0 -0 
1014 -55.756 7.23 0 0 0 -661.715 -1346.23 0 -37.7177 -157.561 -77.0898 -0 -0 -0 
1035 -55.484 7.223 0 0 0 0 6.89708 0 -0 -0 -0 -0 -0 -0 
793 -55.249 7.289 0 0 0 0 3.65131 0 -0 -0 -0 -0 -0 -0 
754 -54.973 7.307 0 0 0 0 4.44583 0 -0 -0 -0 -0 -0 -0 
717 -54.651 7.351 0 0 0 7217.37 -8916.79 0 -923.241 -1069.06 528.224 -0 -0 -0 
813 -54.405 7.282 0 0 0 -423.957 -5587.1 0 -3.39166 -589.843 -44.7275 -0 -0 -0 
693 -54.2 7.369 0 0 0 0 4.93493 0 -0 -0 -0 -0 -0 -0 
902 -53.793 7.26 0 0 0 -1364.42 -2778.58 0 -83.2296 -346.702 -169.87 -0 -0 -0 
871 -53.521 7.266 0 0 0 -4270.76 -8763.37 0 -239.163 -1008.59 -491.137 -0 -0 -0 
770 -53.237 7.298 0 0 0 0 7.50313 0 -0 -0 -0 -0 -0 -0 
916 -52.968 7.253 0 0 0 0 5.71642 0 -0 -0 -0 -0 -0 -0 
1040 -52.701 7.223 0 0 0 950.474 -1642.73 0 -57.5037 -173.206 99.7997 -0 -0 -0 
767 -52.468 7.301 0 0 0 144.939 6115.57 0 -0.434817 -773.116 -18.3348 -0 -0 -0 
925 -52.225 7.251 0 0 0 -1896.57 -2641.36 0 -160.26 -312.518 -223.795 -0 -0 -0 
942 -51.914 7.248 0 0 0 0 5.89788 0 -0 -0 -0 -0 -0 -0 
1009 -51.647 7.231 0 0 0 0 6.50722 0 -0 -0 -0 -0 -0 -0 
1024 -51.382 7.226 0 0 0 159.132 -304.545 0 -9.5479 -36.3059 18.6184 -0 -0 -0 
724 -51.026 7.337 0 0 0 4031.99 -1663.51 0 -457.631 -78.4729 189.504 -0 -0 -0 
666 -50.758 7.389 0 0 0 -17542.7 -2131.59 0 -1819.12 -1239.6 -86.3377 -0 -0 -0 
774 -50.352 7.296 0 0 0 0 3.79662 0 -0 -0 -0 -0 -0 -0 
1045 -50.142 7.219 0 0 0 0 4.93493 0 -0 -0 -0 -0 -0 -0 
674 -49.945 7.383 0 0 0 -3869.98 2063.16 0 -460.527 -137.401 251.549 -0 -0 -0 
919 -49.707 7.253 0 0 0 804.693 -4479.01 0 -751.73 -311.71 26.2501 -0 -0 -0 
655 -49.517 7.4 0 0 0 1709.52 6839.92 0 -337.976 -689.512 -70.0628 -0 -0 -0 
806 -49.225 7.285 0 0 0 -3046.94 2323.92 0 -327.07 -232.869 109.221 -0 -0 -0 
879 -48.963 7.264 0 0 0 867.052 1038.25 0 -442.494 -113.921 152.048 -0 -0 -0 
745 -48.712 7.313 0 0 0 2477.93 -3936.4 0 -151.153 -382.21 240.359 -0 -0 -0 
977 -48.472 7.239 0 0 0 -10246.8 -13085.5 0 -829.988 -1355.14 -1060.54 -0 -0 -0 
704 -48.065 7.36 0 0 0 -5559.94 1020.38 0 -689.432 -25.8268 133.438 -0 -0 -0 
749 -47.817 7.312 0 0 0 2930.96 -3139.25 0 -941.814 -181.929 -65.0491 -0 -0 -0 
716 -47.379 7.351 0 0 0 4645.13 358.023 0 -546.177 -198.766 -23.8416 -0 -0 -0 
779 -46.832 7.295 0 0 0 6969.5 -11276.3 0 -677.465 -1340.16 364.502 -0 -0 -0 
1562 -70 7.469 0 0 0 8.0227e-08 0 0 -4.01135e-09 -0 -0 -0 -0 -0 
1563 -70 7.571 0 0 0 8.0227e-08 0 0 -4.01135e-09 -0 -0 -0 -0 -0 
1612 -70.1 7.469 0 0 0 -8.0227e-08 -0 0 -4.01135e-09 -0 -0 -0 -0 -0 
1613 -70.1 7.571 0 0 0 -8.0227e-08 -0 0 -4.01135e-09 -0 -0 -0 -0 -0 
541 -67.796 7.458 0 0 0 0 -26.0637 0 -0 -0 -0 -0 -0 -0 
612 -67.532 7.429 0 0 0 0 -47.6373 0 -0 -0 -0 -0 -0 -0 
281 -67.249 7.519 0 0 0 2352.59 10097 0 -75.2827 -1420.45 -327.009 -0 -0 -0 
583 -66.754 7.446 0 0 0 -4660.47 2779.46 0 -433.423 -157.153 260.986 -0 -0 -0 
370 -66.41 7.494 0 0 0 1347.66 1345.94 0 -106.465 -109.178 -107.813 -0 -0 -0 
552 -66.149 7.455 0 0 0 -7429.49 -700.177 0 -917.541 -7.27909 -81.7243 -0 -0 -0 
479 -65.902 7.477 0 0 0 7429.49 643.714 0 -917.541 -7.27909 -81.7243 -0 -0 -0 
310 -65.698 7.506 0 0 0 0 -58.3567 0 -0 -0 -0 -0 -0 -0 
555 -65.467 7.454 0 0 0 0 -32.2674 0 -0 -0 -0 -0 -0 -0 
537 -65.232 7.459 0 0 0 1200.66 2583.86 0 -52.8289 -248.87 -114.663 -0 -0 -0 
221 -65.021 7.59 0 0 0 0 -113.899 0 -0 -0 -0 -0 -0 -0 
630 -64.791 7.418 0 0 0 0 -47.005 0 -0 -0 -0 -0 -0 -0 
646 -64.514 7.409 0 0 0 340.164 -708.341 0 -20.75 -78.9683 40.4796 -0 -0 -0 
635 -64.239 7.415 0 0 0 -237.466 -859.617 0 -8.6675 -101.655 -29.6832 -0 -0 -0 
634 -63.957 7.416 0 0 0 0 -46.9422 0 -0 -0 -0 -0 -0 -0 
224 -63.733 7.588 0 0 0 -5023.3 -1995.39 0 -612.842 -89.0297 -233.583 -0 -0 -0 
627 -63.497 7.42 0 0 0 -387.873 -12690 0 -1.55149 -1651.39 -50.6174 -0 -0 -0 
219 -63.246 7.593 0 0 0 163.685 1161.28 0 -2.37344 -135.354 -17.9236 -0 -0 -0 
566 -63.057 7.451 0 0 0 -200.77 -117.782 0 -23.5905 -4.62027 -10.44 -0 -0 -0 
255 -62.822 7.555 0 0 0 -4233.37 2572.42 0 -812.016 -281.628 456.851 -0 -0 -0 
644 -62.576 7.41 0 0 0 5490.78 -3288.57 0 -675.365 -234.641 398.081 -0 -0 -0 
610 -62.281 7.43 0 0 0 -2543.7 -15351 0 -614.355 -2016.75 -314.808 -0 -0 -0 
553 -61.996 7.455 0 0 0 -6700.42 -10578.9 0 -502.531 -1243.95 -790.649 -0 -0 -0 
575 -61.721 7.448 0 0 0 -3433 -9989.41 0 -499.098 -1163.93 -384.896 -0 -0 -0 
647 -61.444 7.408 0 0 0 0 -50.3783 0 -0 -0 -0 -0 -0 -0 
232 -61.21 7.581 0 0 0 0 -119.563 0 -0 -0 -0 -0 -0 -0 
505 -60.96 7.471 0 0 0 -4792.82 1012.82 0 -499.722 -160.456 121.168 -0 -0 -0 
300 -60.568 7.508 0 0 0 -1018.47 4490.12 0 -28.5173 -572.9 127.818 -0 -0 -0 
540 -60.333 7.458 0 0 0 0 -29.3014 0 -0 -0 -0 -0 -0 -0 
336 -59.809 7.5 0 0 0 -3369.57 2400.19 0 -504.888 -308.937 31.8166 -0 -0 -0 
495 -59.519 7.473 0 0 0 5454.36 6772.84 0 -569.397 -852.978 -188.391 -0 -0 -0 
387 -59.244 7.492 0 0 0 0 -21.1512 0 -0 -0 -0 -0 -0 -0 
353 -58.967 7.497 0 0 0 -2248.37 12699.1 0 -360.633 -1263.02 230.453 -0 -0 -0 
432 -58.702 7.486 0 0 0 0 -29.6415 0 -0 -0 -0 -0 -0 -0 
223 -58.436 7.589 0 0 0 -3333.03 3548.95 0 -308.305 -371.218 338.302 -0 -0 -0 
449 -58.011 7.484 0 0 0 99.9954 1899.19 0 -0.699968 -258.42 -13.4494 -0 -0 -0 
332 -57.563 7.5 0 0 0 2913.28 1538.43 0 -329.2 -100.708 -182.08 -0 -0 -0 
371 -57.048 7.494 0 0 0 -5712.11 -4278.01 0 -614.051 -340.07 -456.968 -0 -0 -0 
406 -56.665 7.489 0 0 0 240.43 -253.682 0 -20.1961 -19.4812 19.8354 -0 -0 -0 
433 -56.41 7.486 0 0 0 71.7297 2199.42 0 -305.058 -250.721 -157.029 -0 -0 -0 
524 -56.142 7.464 0 0 0 -447.157 3721.64 0 -290.683 -464.987 235.546 -0 -0 -0 
584 -55.891 7.446 0 0 0 0 -30.8308 0 -0 -0 -0 -0 -0 -0 
528 -55.642 7.463 0 0 0 661.715 1323.38 0 -37.7177 -157.561 -77.0898 -0 -0 -0 
493 -55.386 7.474 0 0 0 -3638.75 -18505.9 0 -659.586 -2041.93 -402.081 -0 -0 -0 
272 -54.871 7.535 0 0 0 -7692.37 6327.57 0 -846.16 -591.893 707.698 -0 -0 -0 
218 -54.576 7.595 0 0 0 -5165.84 6451.7 0 -610.475 -556.981 194.372 -0 -0 -0 
376 -54.389 7.493 0 0 0 6562.84 2226.64 0 -577.378 -760.616 268.356 -0 -0 -0 
459 -53.961 7.482 0 0 0 0 -31.1882 0 -0 -0 -0 -0 -0 -0 
299 -53.671 7.509 0 0 0 1364.42 2666.01 0 -83.2296 -346.702 -169.87 -0 -0 -0 
360 -53.409 7.496 0 0 0 4270.76 8752.75 0 -239.163 -1008.59 -491.137 -0 -0 -0 
341 -53.047 7.499 0 0 0 0 -21.1255 0 -0 -0 -0 -0 -0 -0 
604 -52.822 7.433 0 0 0 -1139.31 -83.5333 0 -59.8641 -366.108 78.4611 -0 -0 -0 
354 -52.6 7.497 0 0 0 0 -20.3668 0 -0 -0 -0 -0 -0 -0 
317 -52.339 7.505 0 0 0 0 -101.469 0 -0 -0 -0 -0 -0 -0 
428 -52.056 7.487 0 0 0 1896.57 2617.37 0 -160.26 -312.518 -223.795 -0 -0 -0 
508 -51.772 7.471 0 0 0 -3918.85 129.518 0 -529.045 -0.878113 21.5537 -0 -0 -0 
536 -51.502 7.46 0 0 0 1655.86 -2992.07 0 -705.85 -402.549 -207.032 -0 -0 -0 
607 -51.253 7.431 0 0 0 -4031.99 1638.71 0 -457.631 -78.4729 189.504 -0 -0 -0 
246 -50.378 7.564 0 0 0 730.185 -290.613 0 -87.6222 -8.55686 27.3819 -0 -0 -0 
637 -50.519 7.414 0 0 0 10968.3 -1361.39 0 -1237.64 -279.875 -6.61957 -0 -0 -0 
574 -50.189 7.448 0 0 0 0 -27.9995 0 -0 -0 -0 -0 -0 -0 
286 -49.718 7.516 0 0 0 0 -89.0495 0 -0 -0 -0 -0 -0 -0 
467 -49.322 7.48 0 0 0 6690.32 -5890.88 0 -575.367 -443.448 505.119 -0 -0 -0 
484 -49.109 7.475 0 0 0 0 -19.3559 0 -0 -0 -0 -0 -0 -0 
304 -48.834 7.507 0 0 0 -2477.93 3853.37 0 -151.153 -382.21 240.359 -0 -0 -0 
302 -48.565 7.508 0 0 0 0 -106.046 0 -0 -0 -0 -0 -0 -0 
581 -48.31 7.446 0 0 0 10246.8 13063.7 0 -829.988 -1355.14 -1060.54 -0 -0 -0 
529 -47.625 7.463 0 0 0 -2.19387 3234.27 0 -576.015 -223.186 -51.1422 -0 -0 -0 
613 -47.147 7.429 0 0 0 0 -27.8845 0 -0 -0 -0 -0 -0 -0 
321 -46.947 7.503 0 0 0 -5746.79 10330.6 0 -330.44 -1081 597.666 -0 -0 -0 
1564 -70 7.673 0 0 0 8.0227e-08 0 0 -4.01135e-09 -0 -0 -0 -0 -0 
1565 -70 7.776 0 0 0 8.0227e-08 0 0 -4.01135e-09 -0 -0 -0 -0 -0 
1614 -70.1 7.673 0 0 0 -8.0227e-08 -0 0 -4.01135e-09 -0 -0 -0 -0 -0 
1615 -70.1 7.776 0 0 0 -8.0227e-08 -0 0 -4.01135e-09 -0 -0 -0 -0 -0 
163 -67.671 7.639 0 0 0 0 -58.9302 0 -0 -0 -0 -0 -0 -0 
65 -67.457 7.682 0 0 0 0 -73.5362 0 -0 -0 -0 -0 -0 -0 
174 -67.009 7.633 0 0 0 0 -70.9897 0 -0 -0 -0 -0 -0 -0 
14 -65.818 7.698 0 0 0 0 -83.4853 0 -0 -0 -0 -0 -0 -0 
6 -65.563 7.7 0 0 0 0 -99.2187 0 -0 -0 -0 -0 -0 -0 
38 -65.295 7.692 0 0 0 0 -102.225 0 -0 -0 -0 -0 -0 -0 
151 -64.636 7.647 0 0 0 -340.164 564.381 0 -20.75 -78.9683 40.4796 -0 -0 -0 
203 -64.387 7.615 0 0 0 0 -63.0234 0 -0 -0 -0 -0 -0 -0 
109 -64.166 7.665 0 0 0 237.466 731.794 0 -8.6675 -101.655 -29.6832 -0 -0 -0 
121 -63.943 7.66 0 0 0 0 -58.3567 0 -0 -0 -0 -0 -0 -0 
66 -63.489 7.681 0 0 0 5411.17 14456.7 0 -614.394 -1740.42 -284.201 -0 -0 -0 
57 -63.036 7.686 0 0 0 -1056.63 574.56 0 -113.06 -42.3666 69.2095 -0 -0 -0 
153 -62.439 7.646 0 0 0 -3203.88 4295.13 0 -253.107 -473.039 346.019 -0 -0 -0 
46 -62.158 7.69 0 0 0 5402.15 11303.7 0 -332.232 -1484.49 -702.279 -0 -0 -0 
40 -61.846 7.691 0 0 0 5177.44 13393.5 0 -597.717 -1603.67 -605.608 -0 -0 -0 
76 -61.558 7.678 0 0 0 4955.98 6869.41 0 -403.912 -804.206 -569.938 -0 -0 -0 
202 -60.77 7.615 0 0 0 1092.42 756.947 0 -103.78 -59.6114 -78.654 -0 -0 -0 
157 -60.157 7.643 0 0 0 0 -93.3404 0 -0 -0 -0 -0 -0 -0 
34 -58.852 7.694 0 0 0 0 -69.1093 0 -0 -0 -0 -0 -0 -0 
192 -58.193 7.621 0 0 0 0 -62.4303 0 -0 -0 -0 -0 -0 -0 
186 -57.264 7.625 0 0 0 0 -65.4241 0 -0 -0 -0 -0 -0 -0 
135 -56.833 7.654 0 0 0 5471.68 4400.06 0 -634.247 -359.551 -437.133 -0 -0 -0 
150 -55.784 7.647 0 0 0 0 -61.8399 0 -0 -0 -0 -0 -0 -0 
28 -55.524 7.695 0 0 0 -3420.63 5379.49 0 -236.023 -605.315 377.979 -0 -0 -0 
25 -55.266 7.695 0 0 0 7059.37 12914.8 0 -423.562 -1436.61 -780.061 -0 -0 -0 
110 -53.239 7.665 0 0 0 0 -84.8595 0 -0 -0 -0 -0 -0 -0 
125 -52.797 7.659 0 0 0 188.838 1620.85 0 -2.36047 -192.902 -21.3387 -0 -0 -0 
23 -51.629 7.696 0 0 0 0 -96.9933 0 -0 -0 -0 -0 -0 -0 
24 -51.343 7.695 0 0 0 -2050.47 4272.07 0 -663.7 -412.957 -93.4937 -0 -0 -0 
194 -51.104 7.621 0 0 0 4154.33 -1344.64 0 -496.443 -47.5923 153.71 -0 -0 -0 
188 -50.88 7.622 0 0 0 0 -74.8263 0 -0 -0 -0 -0 -0 -0 
161 -50.618 7.639 0 0 0 1502.12 8331.37 0 -368.626 -1006.75 -264.705 -0 -0 -0 
61 -50.186 7.684 0 0 0 -4549.65 521.52 0 -566.431 -9.94893 75.0692 -0 -0 -0 
144 -49.937 7.651 0 0 0 4549.65 -699.223 0 -566.431 -9.94893 75.0692 -0 -0 -0 
175 -49.494 7.631 0 0 0 -6690.32 5785.13 0 -575.367 -443.448 505.119 -0 -0 -0 
122 -49.005 7.66 0 0 0 0 -61.2524 0 -0 -0 -0 -0 -0 -0 
100 -48.367 7.668 0 0 0 0 -69.1093 0 -0 -0 -0 -0 -0 -0 
205 -48.136 7.613 0 0 0 0 -82.1223 0 -0 -0 -0 -0 -0 -0 
130 -47.119 7.657 0 0 0 0 -84.8595 0 -0 -0 -0 -0 -0 -0 
1566 -70 7.878 0 0 0 8.0227e-08 0 0 -4.01135e-09 -0 -0 -0 -0 -0 
1567 -70 7.98 0 0 0 8.0227e-08 0 0 -4.01135e-09 -0 -0 -0 -0 -0 
1616 -70.1 7.878 0 0 0 -8.0227e-08 -0 0 -4.01135e-09 -0 -0 -0 -0 -0 
1617 -70.1 7.98 0 0 0 -8.0227e-08 -0 0 -4.01135e-09 -0 -0 -0 -0 -0 
1568 -70 8.082 0 0 0 8.0227e-08 0 0 -4.01135e-09 -0 -0 -0 -0 -0 
1569 -70 8.184 0 0 0 8.0227e-08 0 0 -4.01135e-09 -0 -0 -0 -0 -0 
1618 -70.1 8.082 0 0 0 -8.0227e-08 -0 0 -4.01135e-09 -0 -0 -0 -0 -0 
1619 -70.1 8.184 0 0 0 -8.0227e-08 -0 0 -4.01135e-09 -0 -0 -0 -0 -0 
1570 -70 8.286 0 0 0 8.0227e-08 0 0 -4.01135e-09 -0 -0 -0 -0 -0 
1571 -70 8.388 0 0 0 8.0227e-08 0 0 -4.01135e-09 -0 -0 -0 -0 -0 
1620 -70.1 8.286 0 0 0 -8.0227e-08 -0 0 -4.01135e-09 -0 -0 -0 -0 -0 
1621 -70.1 8.388 0 0 0 -8.0227e-08 -0 0 -4.01135e-09 -0 -0 -0 -0 -0 
1572 -70 8.49 0 0 0 8.0227e-08 0 0 -4.01135e-09 -0 -0 -0 -0 -0 
1573 -70 8.592 0 0 0 8.0227e-08 0 0 -4.01135e-09 -0 -0 -0 -0 -0 
1622 -70.1 8.49 0 0 0 -8.0227e-08 -0 0 -4.01135e-09 -0 -0 -0 -0 -0 
1623 -70.1 8.592 0 0 0 -8.0227e-08 -0 0 -4.01135e-09 -0 -0 -0 -0 -0 
1574 -70 8.694 0 0 0 8.0227e-08 0 0 -4.01135e-09 -0 -0 -0 -0 -0 
1575 -70 8.796 0 0 0 8.0227e-08 0 0 -4.01135e-09 -0 -0 -0 -0 -0 
1624 -70.1 8.694 0 0 0 -8.0227e-08 -0 0 -4.01135e-09 -0 -0 -0 -0 -0 
1625 -70.1 8.796 0 0 0 -8.0227e-08 -0 0 -4.01135e-09 -0 -0 -0 -0 -0 
1576 -70 8.898 0 0 0 8.0227e-08 0 0 -4.01135e-09 -0 -0 -0 -0 -0 
1577 -70 9 0 0 0 8.0227e-08 0 0 -4.01135e-09 -0 -0 -0 -0 -0 
1626 -70.1 8.898 0 0 0 -8.0227e-08 -0 0 -4.01135e-09 -0 -0 -0 -0 -0 
1627 -70.1 9 0 0 0 -8.0227e-08 -0 0 -4.01135e-09 -0 -0 -0 -0 -0 
1190 -46.67 7.12 0 0 0 -4635.18 -2917.11 0 -355.454 -475.803 -42.1218 -0 -0 -0 
1402 -46.47 7.023 0 0 0 2787.93 -1347.25 0 -278.793 -65.579 135.214 -0 -0 -0 
1179 -46.192 7.129 0 0 0 0 3.94477 0 -0 -0 -0 -0 -0 -0 
1193 -45.75 7.119 0 0 0 4696.97 -3439.14 0 -554.773 -252.031 193.953 -0 -0 -0 
1379 -44.928 7.03 0 0 0 0 5.76152 0 -0 -0 -0 -0 -0 -0 
1424 -44.697 7.015 0 0 0 0 3.79662 0 -0 -0 -0 -0 -0 -0 
1122 -44.278 7.181 0 0 0 0 6.36394 0 -0 -0 -0 -0 -0 -0 
1123 -43.999 7.18 0 0 0 -2928.27 -5237.93 0 -188.874 -605.642 -338.215 -0 -0 -0 
1119 -43.706 7.182 0 0 0 2750.04 -3832.65 0 -225.504 -439.68 314.88 -0 -0 -0 
1156 -43.177 7.15 0 0 0 -7342.06 -1469.74 0 -822.311 -33.1868 -165.196 -0 -0 -0 
1095 -42.953 7.195 0 0 0 7503.03 -2208.44 0 -823.197 -497.813 -144.915 -0 -0 -0 
1209 -42.5 7.108 0 0 0 4365.56 -3692.04 0 -471.48 -338.421 399.448 -0 -0 -0 
1308 -42.011 7.055 0 0 0 -438.685 -6273.83 0 -3.50948 -718.909 -50.2295 -0 -0 -0 
1149 -41.776 7.154 0 0 0 0 6.70073 0 -0 -0 -0 -0 -0 -0 
1331 -41.146 7.048 0 0 0 0 4.40622 0 -0 -0 -0 -0 -0 -0 
1258 -40.817 7.077 0 0 0 0 4.52557 0 -0 -0 -0 -0 -0 -0 
1217 -40.566 7.104 0 0 0 0 6.84773 0 -0 -0 -0 -0 -0 -0 
1284 -40.298 7.064 0 0 0 152.288 -349.837 0 -7.23368 -39.5019 16.904 -0 -0 -0 
1270 -40.066 7.07 0 0 0 0 3.65131 0 -0 -0 -0 -0 -0 -0 
1181 -39.788 7.127 0 0 0 0 4.97684 0 -0 -0 -0 -0 -0 -0 
1120 -38.992 7.181 0 0 0 0 7.29828 0 -0 -0 -0 -0 -0 -0 
1238 -38.568 7.089 0 0 0 1862.78 -2346.17 0 -142.503 -226.754 179.758 -0 -0 -0 
1338 -38.115 7.046 0 0 0 823.241 -4168.5 0 -17.6997 -454.927 89.7333 -0 -0 -0 
1422 -37.728 7.015 0 0 0 0 4.48561 0 -0 -0 -0 -0 -0 -0 
1381 -37.508 7.03 0 0 0 -2762.19 -4139.19 0 -174.018 -391.54 -261.027 -0 -0 -0 
1265 -36.958 7.073 0 0 0 0 4.68719 0 -0 -0 -0 -0 -0 -0 
1143 -36.622 7.162 0 0 0 0 5.49358 0 -0 -0 -0 -0 -0 -0 
1188 -36.125 7.122 0 0 0 -1023.35 -477.252 0 -129.966 -29.0084 -61.4012 -0 -0 -0 
1197 -35.606 7.117 0 0 0 -2650.76 -2499.3 0 -243.87 -218.083 -230.616 -0 -0 -0 
1201 -35.239 7.114 0 0 0 0 7.45165 0 -0 -0 -0 -0 -0 -0 
1340 -34.864 7.045 0 0 0 0 5.23202 0 -0 -0 -0 -0 -0 -0 
1160 -34.544 7.148 0 0 0 9041.46 -6511.1 0 -988.347 -485.032 609.533 -0 -0 -0 
1148 -33.824 7.155 0 0 0 9393.09 -2123.62 0 -1263.37 -64.966 286.489 -0 -0 -0 
1297 -33.604 7.061 0 0 0 -2727.94 -5427.4 0 -150.037 -594.704 -298.71 -0 -0 -0 
1317 -33.389 7.053 0 0 0 0 3.98225 0 -0 -0 -0 -0 -0 -0 
1097 -32.86 7.194 0 0 0 -8376.96 -12124 0 -768.811 -1494.34 -649.063 -0 -0 -0 
1328 -32.5 7.049 0 0 0 -3410.09 -8005.96 0 -170.505 -941.612 -400.686 -0 -0 -0 
1180 -32.245 7.127 0 0 0 0 4.44583 0 -0 -0 -0 -0 -0 -0 
1151 -31.834 7.152 0 0 0 0 3.87034 0 -0 -0 -0 -0 -0 -0 
1091 -31.591 7.197 0 0 0 931.348 -12911.9 0 -291.276 -1566.68 26.6237 -0 -0 -0 
1359 -31.157 7.037 0 0 0 6669.11 -7186.09 0 -593.551 -690.59 640.235 -0 -0 -0 
1144 -30.932 7.16 0 0 0 -2680.07 -3464.69 0 -257.148 -360.649 -129.691 -0 -0 -0 
1096 -30.675 7.195 0 0 0 -2090.87 -1501.34 0 -732.551 -106.82 -258.345 -0 -0 -0 
1293 -30.443 7.062 0 0 0 -70.0719 -643.962 0 -0.945971 -81.1017 -8.75899 -0 -0 -0 
1155 -30.244 7.15 0 0 0 0 3.57972 0 -0 -0 -0 -0 -0 -0 
1213 -29.791 7.107 0 0 0 4575.1 -8444.67 0 -629.774 -842.137 246.199 -0 -0 -0 
1102 -29.524 7.189 0 0 0 2327.78 -6921.91 0 -371.048 -810.188 171.864 -0 -0 -0 
1325 -29.052 7.049 0 0 0 3871.8 -3105.37 0 -404.603 -261.43 325.232 -0 -0 -0 
1322 -28.772 7.05 0 0 0 0 6.89708 0 -0 -0 -0 -0 -0 -0 
1093 -28.331 7.196 0 0 0 3788.75 -574.075 0 -447.073 -10.403 68.1975 -0 -0 -0 
1088 -28.063 7.199 0 0 0 2098.73 -5794.74 0 -672.65 -430.747 359.054 -0 -0 -0 
1416 -27.962 7.018 0 0 0 -4781.37 -6587.92 0 -334.696 -636.076 -461.402 -0 -0 -0 
1332 -27.097 7.048 0 0 0 0 3.83339 0 -0 -0 -0 -0 -0 -0 
1405 -26.85 7.022 0 0 0 -1026.46 -3794.47 0 -129.197 -457.253 -127.446 -0 -0 -0 
1343 -26.331 7.044 0 0 0 0 4.60603 0 -0 -0 -0 -0 -0 -0 
1313 -26.082 7.053 0 0 0 -950.53 -1645.11 0 -57.507 -173.216 -99.8056 -0 -0 -0 
1336 -25.804 7.046 0 0 0 0 6.55533 0 -0 -0 -0 -0 -0 -0 
1259 -25.531 7.076 0 0 0 0 6.65209 0 -0 -0 -0 -0 -0 -0 
1349 -25.246 7.042 0 0 0 0 7.76319 0 -0 -0 -0 -0 -0 -0 
1423 -23.664 7.015 0 0 0 0 4.89319 0 -0 -0 -0 -0 -0 -0 
747 -46.587 7.312 0 0 0 3633.29 623.02 0 -174 -817.646 21.8074 -0 -0 -0 
982 -46.382 7.237 0 0 0 0 4.52557 0 -0 -0 -0 -0 -0 -0 
696 -46.179 7.364 0 0 0 0 5.62675 0 -0 -0 -0 -0 -0 -0 
1070 -45.968 7.211 0 0 0 -5010.55 2120.81 0 -546.15 -97.269 230.485 -0 -0 -0 
711 -45.695 7.352 0 0 0 313.578 1334.94 0 -8.6234 -154.762 -36.5319 -0 -0 -0 
988 -45.421 7.236 0 0 0 0 7.34923 0 -0 -0 -0 -0 -0 -0 
1020 -45.122 7.228 0 0 0 -1631.06 -4555.74 0 -80.7372 -632.067 -225.901 -0 -0 -0 
798 -44.834 7.286 0 0 0 0 7.24751 0 -0 -0 -0 -0 -0 -0 
1064 -44.569 7.213 0 0 0 2205.58 -7664.02 0 -73.8869 -893.572 256.95 -0 -0 -0 
658 -44.132 7.395 0 0 0 -6327.75 -1933.79 0 -1018.89 -139.469 33.37 -0 -0 -0 
930 -43.426 7.25 0 0 0 0 6.84773 0 -0 -0 -0 -0 -0 -0 
785 -42.716 7.291 0 0 0 -4743.66 3588.15 0 -522.902 -343.443 383.379 -0 -0 -0 
684 -42.444 7.376 0 0 0 -9355.79 -14219.5 0 -1170.1 -1736.85 -625.134 -0 -0 -0 
809 -41.995 7.284 0 0 0 438.685 6283.21 0 -3.50948 -718.909 -50.2295 -0 -0 -0 
1022 -41.509 7.226 0 0 0 0 6.08218 0 -0 -0 -0 -0 -0 -0 
838 -41.258 7.274 0 0 0 0 5.40568 0 -0 -0 -0 -0 -0 -0 
864 -40.99 7.268 0 0 0 0 7.29828 0 -0 -0 -0 -0 -0 -0 
801 -40.736 7.286 0 0 0 -5138.95 -5678.78 0 -436.811 -534.209 -483.061 -0 -0 -0 
797 -40.393 7.286 0 0 0 -152.288 360.24 0 -7.23368 -39.5019 16.904 -0 -0 -0 
836 -40.157 7.275 0 0 0 2891.02 -5972.81 0 -170.57 -729.321 352.705 -0 -0 -0 
740 -39.624 7.319 0 0 0 -2047.87 -1851.8 0 -209.907 -172.8 -190.452 -0 -0 -0 
1061 -39.386 7.214 0 0 0 0 5.06119 0 -0 -0 -0 -0 -0 -0 
698 -39.19 7.364 0 0 0 872.249 -531.524 0 -99.8725 -37.8628 61.4935 -0 -0 -0 
815 -38.721 7.282 0 0 0 -9645.16 -3090.38 0 -959.652 -627.157 -392.246 -0 -0 -0 
1023 -38.384 7.226 0 0 0 -4590.08 -766.021 0 -518.679 -14.6639 -87.2114 -0 -0 -0 
880 -38.158 7.264 0 0 0 3766.83 4949.11 0 -536.378 -469.591 2.52189 -0 -0 -0 
1078 -37.902 7.207 0 0 0 0 7.60662 0 -0 -0 -0 -0 -0 -0 
1001 -37.629 7.232 0 0 0 0 5.62675 0 -0 -0 -0 -0 -0 -0 
1046 -37.382 7.219 0 0 0 1513.37 523.777 0 -225.219 -822.869 -409.636 -0 -0 -0 
918 -37.131 7.253 0 0 0 762.379 -1133.1 0 -71.3919 -119.36 76.6463 -0 -0 -0 
752 -36.848 7.309 0 0 0 -1276.56 -6664.4 0 -33.8289 -924.051 -176.804 -0 -0 -0 
968 -36.37 7.242 0 0 0 -419.197 -2499.17 0 -9.64152 -344.584 -57.6395 -0 -0 -0 
683 -36.106 7.376 0 0 0 4487.73 -2897.47 0 -489.163 -204.634 316.385 -0 -0 -0 
962 -35.871 7.242 0 0 0 -4168.41 -2828.77 0 -734.806 -276.353 -448.188 -0 -0 -0 
663 -35.638 7.391 0 0 0 8893.1 -13107.8 0 -1027.89 -2278.57 -172.599 -0 -0 -0 
786 -35.422 7.291 0 0 0 3009.6 -10706.5 0 -244.946 -1678.61 -190.964 -0 -0 -0 
669 -35.203 7.386 0 0 0 -538.646 -2824.86 0 -13.4662 -358.545 -69.4854 -0 -0 -0 
1010 -35.008 7.231 0 0 0 0 4.52557 0 -0 -0 -0 -0 -0 -0 