LIGGGHTS (Version LIGGGHTS-PUBLIC 3.1.0, compiled 2017-06-28-17:24:13 by root, git commit  based on LAMMPS 23 Nov 2013)
