 Input file for LIGGGHTS, written by liggghts_input.py 

 6290 atoms

    2 atom types

         -6.210          6.210 xlo xhi
         -2.864          2.796 ylo yhi
          0.000          8.010 zlo zhi

 13105 bonds

    2 bond types

    12 extra bond per atom

 Atoms

     1 1    1.440    1.840    7.494    0.150  910.0  1
     2 1    1.120   -1.794    7.369    0.159  910.0  1
     3 2   -3.360   -1.360    7.250    0.155  910.0  1
     4 1    2.400   -1.040    7.487    0.147  910.0  1
     5 1    1.760    0.880    7.500    0.160  910.0  1
     6 2   -1.840   -0.240    7.257    0.135  910.0  1
     7 1    4.800    0.446    7.126    0.148  910.0  1
     8 1    4.000   -1.154    7.112    0.156  910.0  1
     9 2   -3.920   -1.200    7.496    0.159  910.0  1
    10 1    3.440    1.886    7.121    0.158  910.0  1
    11 1    4.880   -0.034    7.370    0.159  910.0  1
    12 1    5.760   -1.680    7.493    0.149  910.0  1
    13 2   -4.240   -0.034    7.368    0.157  910.0  1
    14 2   -0.720   -1.520    7.490    0.148  910.0  1
    15 1    5.440    0.446    7.381    0.141  910.0  1
    16 1    4.880    1.246    7.142    0.136  910.0  1
    17 1    5.120    0.240    7.495    0.152  910.0  1
    18 2   -2.240   -0.194    7.371    0.154  910.0  1
    19 1    4.400   -0.560    7.241    0.160  910.0  1
    20 2   -3.840    0.240    7.249    0.141  910.0  1
    21 2   -1.760    0.766    7.375    0.147  910.0  1
    22 2   -4.880    0.080    7.494    0.147  910.0  1
    23 2   -4.880    1.360    7.240    0.158  910.0  1
    24 2   -1.120    1.840    7.497    0.156  910.0  1
    25 2   -4.800    1.520    7.242    0.154  910.0  1
    26 2   -5.360    1.886    7.373    0.144  910.0  1
    27 1    2.000    0.080    7.240    0.157  910.0  1
    28 1    0.640   -1.040    7.245    0.152  910.0  1
    29 1    0.560    1.886    7.370    0.155  910.0  1
    30 2   -5.920   -0.194    7.372    0.157  910.0  1
    31 2   -4.640    1.840    7.249    0.146  910.0  1
    32 2   -4.960    1.520    7.494    0.157  910.0  1
    33 1    5.760   -0.400    7.499    0.158  910.0  1
    34 2   -2.400    1.840    7.247    0.155  910.0  1
    35 2   -1.600   -1.040    7.245    0.156  910.0  1
    36 2   -2.800    1.360    7.499    0.157  910.0  1
    37 1    1.760   -1.154    7.372    0.152  910.0  1
    38 2   -4.800   -0.720    7.242    0.156  910.0  1
    39 1    2.160   -0.674    7.380    0.140  910.0  1
    40 1    5.040   -1.634    7.386    0.135  910.0  1
    41 1    2.880    1.520    7.496    0.158  910.0  1
    42 2   -4.480   -0.194    7.111    0.158  910.0  1
    43 1    4.960   -0.834    7.114    0.159  910.0  1
    44 1    2.400    0.560    7.252    0.151  910.0  1
    45 2   -1.040    1.360    7.497    0.159  910.0  1
    46 2   -5.760   -0.834    7.120    0.160  910.0  1
    47 1    2.160   -0.240    7.497    0.151  910.0  1
    48 2   -2.400    1.200    7.495    0.156  910.0  1
    49 2   -3.360    1.726    7.373    0.148  910.0  1
    50 2   -0.800    1.726    7.370    0.152  910.0  1
    51 2   -3.040   -0.080    7.246    0.149  910.0  1
    52 2   -2.640    1.360    7.492    0.143  910.0  1
    53 2   -5.600    0.240    7.242    0.149  910.0  1
    54 1    5.760    1.406    7.131    0.145  910.0  1
    55 1    1.840   -0.674    7.125    0.157  910.0  1
    56 1    5.600    0.880    7.241    0.153  910.0  1
    57 1    5.040   -1.840    7.248    0.157  910.0  1
    58 1    3.360   -1.360    7.500    0.157  910.0  1
    59 2   -0.640    0.880    7.490    0.153  910.0  1
    60 2   -4.480    1.520    7.244    0.145  910.0  1
    61 1    3.840   -0.720    7.492    0.151  910.0  1
    62 1    3.600    0.286    7.129    0.155  910.0  1
    63 2   -1.120   -1.794    7.129    0.153  910.0  1
    64 2   -5.680   -1.520    7.245    0.158  910.0  1
    65 2   -5.520   -0.674    7.370    0.160  910.0  1
    66 2   -2.320   -1.840    7.499    0.160  910.0  1
    67 2   -1.760    1.406    7.373    0.159  910.0  1
    68 1    2.320   -0.674    7.127    0.140  910.0  1
    69 1    2.800   -1.314    7.112    0.157  910.0  1
    70 1    4.960    1.086    7.130    0.147  910.0  1
    71 1    3.200   -1.360    7.499    0.156  910.0  1
    72 1    4.960   -0.834    7.371    0.153  910.0  1
    73 1    5.360   -1.314    7.370    0.156  910.0  1
    74 1    5.920    0.446    7.132    0.132  910.0  1
    75 2   -1.920    1.840    7.488    0.137  910.0  1
    76 1    1.120    1.840    7.499    0.156  910.0  1
    77 2   -5.520   -0.034    7.123    0.154  910.0  1
    78 1    5.760    0.126    7.370    0.156  910.0  1
    79 2   -5.040    0.720    7.493    0.151  910.0  1
    80 1    3.440   -0.240    7.252    0.152  910.0  1
    81 1    3.280    1.246    7.377    0.146  910.0  1
    82 2   -2.000    1.246    7.371    0.155  910.0  1
    83 1    2.480   -0.880    7.254    0.139  910.0  1
    84 2   -1.840   -0.240    7.498    0.159  910.0  1
    85 1    3.200   -0.080    7.250    0.149  910.0  1
    86 2   -3.440    0.606    7.369    0.159  910.0  1
    87 1    5.520   -0.354    7.124    0.149  910.0  1
    88 2   -2.960    1.886    7.113    0.155  910.0  1
    89 1    3.520   -0.834    7.123    0.158  910.0  1
    90 2   -4.960   -1.794    7.120    0.151  910.0  1
    91 2   -4.480   -0.080    7.253    0.148  910.0  1
    92 2   -4.800   -1.794    7.131    0.132  910.0  1
    93 1    2.000    1.566    7.122    0.152  910.0  1
    94 2   -3.200    1.086    7.372    0.153  910.0  1
    95 1    2.880   -1.040    7.494    0.158  910.0  1
    96 2   -3.600   -1.634    7.146    0.136  910.0  1
    97 1    2.080   -1.040    7.495    0.159  910.0  1
    98 1    3.840    1.086    7.123    0.149  910.0  1
    99 1    3.600   -0.994    7.113    0.154  910.0  1
   100 1    4.480   -0.194    7.363    0.158  910.0  1
   101 1    1.520    1.246    7.117    0.159  910.0  1
   102 2   -5.280    1.726    7.120    0.155  910.0  1
   103 2   -2.080   -0.514    7.383    0.137  910.0  1
   104 1    1.440    0.560    7.243    0.154  910.0  1
   105 1    2.000   -1.840    7.254    0.140  910.0  1
   106 1    1.760   -0.720    7.255    0.140  910.0  1
   107 1    2.160   -1.314    7.133    0.152  910.0  1
   108 1    5.040    1.886    7.115    0.154  910.0  1
   109 1    4.320    1.520    7.491    0.145  910.0  1
   110 1    4.720   -0.354    7.372    0.156  910.0  1
   111 1    2.160    0.286    7.381    0.145  910.0  1
   112 1    4.320    1.520    7.246    0.158  910.0  1
   113 1    6.000   -0.354    7.370    0.159  910.0  1
   114 1    1.360   -1.200    7.487    0.139  910.0  1
   115 1    0.880   -0.560    7.246    0.154  910.0  1
   116 2   -4.960   -1.794    7.374    0.158  910.0  1
   117 1    6.000    1.680    7.495    0.158  910.0  1
   118 1    4.320   -0.514    7.117    0.148  910.0  1
   119 2   -4.640   -0.514    7.372    0.154  910.0  1
   120 1    4.640   -1.040    7.255    0.151  910.0  1
   121 1    3.520    1.840    7.248    0.156  910.0  1
   122 2   -1.120   -0.834    7.129    0.158  910.0  1
   123 1    3.360    1.086    7.373    0.153  910.0  1
   124 2   -5.680   -1.954    7.370    0.145  910.0  1
   125 2   -4.160    1.726    7.379    0.154  910.0  1
   126 1    1.120   -0.514    7.121    0.148  910.0  1
   127 2   -2.400    0.766    7.116    0.150  910.0  1
   128 1    4.640   -0.400    7.245    0.158  910.0  1
   129 1    2.640    0.286    7.372    0.158  910.0  1
   130 2   -3.040    0.766    7.128    0.150  910.0  1
   131 1    1.440   -0.514    7.134    0.148  910.0  1
   132 1    4.800   -0.400    7.246    0.155  910.0  1
   133 1    6.000    0.926    7.365    0.149  910.0  1
   134 1    5.680   -1.520    7.244    0.160  910.0  1
   135 2   -4.720   -0.034    7.373    0.137  910.0  1
   136 1    1.120    0.766    7.375    0.149  910.0  1
   137 2   -0.880   -0.240    7.497    0.159  910.0  1
   138 2   -4.480    1.520    7.490    0.152  910.0  1
   139 2   -1.600   -1.680    7.249    0.158  910.0  1
   140 2   -4.000    0.126    7.382    0.141  910.0  1
   141 1    1.200   -0.354    7.371    0.150  910.0  1
   142 2   -2.800    1.246    7.370    0.156  910.0  1
   143 1    3.520    0.240    7.498    0.159  910.0  1
   144 1    1.600    1.086    7.129    0.144  910.0  1
   145 1    3.680    0.126    7.370    0.158  910.0  1
   146 1    1.600    1.726    7.374    0.148  910.0  1
   147 1    2.080    0.240    7.496    0.150  910.0  1
   148 1    2.080    0.446    7.370    0.151  910.0  1
   149 2   -6.000   -0.994    7.123    0.155  910.0  1
   150 1    3.200    0.766    7.370    0.159  910.0  1
   151 2   -0.720    0.720    7.249    0.145  910.0  1
   152 1    3.600    1.246    7.120    0.150  910.0  1
   153 1    3.600    1.360    7.246    0.147  910.0  1
   154 2   -2.480    0.606    7.371    0.152  910.0  1
   155 2   -5.600    1.200    7.491    0.148  910.0  1
   156 1    5.200   -1.200    7.494    0.152  910.0  1
   157 1    1.840   -1.314    7.369    0.149  910.0  1
   158 2   -1.920    1.406    7.373    0.158  910.0  1
   159 1    5.760    1.200    7.246    0.157  910.0  1
   160 2   -5.520   -1.314    7.117    0.152  910.0  1
   161 1    4.720   -0.674    7.369    0.160  910.0  1
   162 1    5.200   -1.314    7.111    0.159  910.0  1
   163 2   -4.880   -0.880    7.238    0.157  910.0  1
   164 2   -4.560    1.680    7.490    0.154  910.0  1
   165 1    5.920    0.126    7.123    0.141  910.0  1
   166 2   -4.880   -1.200    7.495    0.147  910.0  1
   167 1    2.160    1.566    7.119    0.156  910.0  1
   168 2   -4.800   -0.080    7.490    0.159  910.0  1
   169 2   -5.040   -0.240    7.498    0.159  910.0  1
   170 1    2.000   -1.520    7.496    0.148  910.0  1
   171 2   -3.760    1.680    7.253    0.151  910.0  1
   172 2   -0.880    1.566    7.133    0.151  910.0  1
   173 2   -1.360   -0.354    7.372    0.150  910.0  1
   174 1    1.920    0.560    7.497    0.157  910.0  1
   175 1    1.520   -1.954    7.368    0.157  910.0  1
   176 2   -1.920   -0.834    7.129    0.147  910.0  1
   177 2   -2.880    1.200    7.490    0.148  910.0  1
   178 2   -4.560   -1.314    7.382    0.137  910.0  1
   179 1    2.560   -1.474    7.137    0.147  910.0  1
   180 2   -4.880    0.286    7.118    0.157  910.0  1
   181 2   -1.840    0.400    7.256    0.132  910.0  1
   182 2   -0.720    0.400    7.494    0.158  910.0  1
   183 1    2.240   -0.194    7.125    0.149  910.0  1
   184 1    0.560   -0.880    7.255    0.144  910.0  1
   185 2   -4.960    0.126    7.123    0.159  910.0  1
   186 2   -0.800   -0.834    7.370    0.154  910.0  1
   187 2   -3.040   -0.834    7.117    0.159  910.0  1
   188 1    4.880    1.566    7.136    0.157  910.0  1
   189 2   -3.040    0.880    7.242    0.153  910.0  1
   190 2   -2.720    0.240    7.239    0.155  910.0  1
   191 2   -4.240    0.400    7.249    0.147  910.0  1
   192 1    3.680    1.406    7.123    0.153  910.0  1
   193 2   -0.880   -0.674    7.374    0.151  910.0  1
   194 1    1.600   -1.360    7.250    0.146  910.0  1
   195 2   -3.520   -1.794    7.368    0.151  910.0  1
   196 2   -1.040    0.606    7.379    0.137  910.0  1
   197 1    4.800   -0.194    7.364    0.159  910.0  1
   198 1    4.160   -0.720    7.242    0.152  910.0  1
   199 1    4.480    1.840    7.497    0.151  910.0  1
   200 2   -2.960   -1.314    7.115    0.154  910.0  1
   201 1    0.720   -1.520    7.497    0.154  910.0  1
   202 2   -1.200   -0.994    7.374    0.159  910.0  1
   203 2   -4.560   -0.560    7.491    0.144  910.0  1
   204 2   -2.000    0.400    7.239    0.159  910.0  1
   205 2   -1.840    1.360    7.249    0.151  910.0  1
   206 2   -3.680   -0.400    7.260    0.146  910.0  1
   207 2   -2.880    0.560    7.495    0.153  910.0  1
   208 1    4.080    0.606    7.123    0.158  910.0  1
   209 1    3.680   -0.834    7.126    0.156  910.0  1
   210 1    4.880   -0.354    7.119    0.159  910.0  1
   211 2   -3.280    1.886    7.113    0.151  910.0  1
   212 2   -1.440    0.766    7.131    0.152  910.0  1
   213 2   -4.080   -0.880    7.257    0.145  910.0  1
   214 1    3.360    1.520    7.249    0.149  910.0  1
   215 2   -2.480   -1.634    7.125    0.143  910.0  1
   216 2   -3.600    1.886    7.367    0.158  910.0  1
   217 1    4.240    1.360    7.245    0.159  910.0  1
   218 1    4.320   -0.834    7.120    0.151  910.0  1
   219 2   -1.840   -1.200    7.250    0.159  910.0  1
   220 1    4.160   -0.080    7.485    0.144  910.0  1
   221 2   -5.120    0.880    7.252    0.145  910.0  1
   222 2   -3.280    1.246    7.369    0.159  910.0  1
   223 2   -2.560    1.086    7.374    0.149  910.0  1
   224 2   -5.040   -0.674    7.122    0.146  910.0  1
   225 2   -5.840    1.680    7.240    0.159  910.0  1
   226 1    2.960   -0.560    7.251    0.152  910.0  1
   227 2   -4.080   -1.954    7.122    0.145  910.0  1
   228 1    2.800   -1.840    7.260    0.147  910.0  1
   229 2   -1.440   -1.474    7.116    0.151  910.0  1
   230 1    3.840   -0.834    7.129    0.152  910.0  1
   231 2   -2.560    1.520    7.495    0.157  910.0  1
   232 1    5.200   -0.994    7.369    0.159  910.0  1
   233 2   -0.720   -0.674    7.374    0.151  910.0  1
   234 1    2.000   -0.674    7.371    0.155  910.0  1
   235 2   -0.720    1.040    7.496    0.160  910.0  1
   236 1    2.080    1.840    7.493    0.156  910.0  1
   237 1    2.320   -1.314    7.140    0.140  910.0  1
   238 2   -4.880    1.360    7.491    0.149  910.0  1
   239 1    3.840   -0.194    7.372    0.144  910.0  1
   240 2   -2.720   -1.794    7.126    0.152  910.0  1
   241 2   -5.600    1.406    7.370    0.150  910.0  1
   242 1    2.880    1.086    7.373    0.140  910.0  1
   243 1    4.240    1.040    7.246    0.155  910.0  1
   244 2   -4.080   -0.880    7.499    0.158  910.0  1
   245 2   -4.480   -1.154    7.132    0.156  910.0  1
   246 1    4.240    0.606    7.113    0.159  910.0  1
   247 1    2.880    1.726    7.369    0.157  910.0  1
   248 2   -3.840   -1.360    7.244    0.153  910.0  1
   249 2   -4.240    1.040    7.496    0.153  910.0  1
   250 2   -0.640    0.126    7.372    0.153  910.0  1
   251 1    1.440   -1.474    7.380    0.141  910.0  1
   252 2   -1.520   -1.520    7.255    0.150  910.0  1
   253 2   -2.720    1.726    7.118    0.150  910.0  1
   254 1    5.680   -1.840    7.499    0.146  910.0  1
   255 1    5.840   -1.520    7.492    0.155  910.0  1
   256 1    3.200    1.726    7.122    0.149  910.0  1
   257 1    5.600    0.880    7.494    0.156  910.0  1
   258 2   -2.240   -0.194    7.129    0.136  910.0  1
   259 1    3.120    1.040    7.249    0.148  910.0  1
   260 1    1.600   -0.400    7.497    0.156  910.0  1
   261 2   -4.720   -0.674    7.122    0.146  910.0  1
   262 2   -5.680   -0.034    7.111    0.159  910.0  1
   263 2   -1.360   -0.354    7.130    0.150  910.0  1
   264 2   -4.480   -0.720    7.238    0.159  910.0  1
   265 1    1.440   -0.194    7.118    0.155  910.0  1
   266 1    1.840   -1.314    7.121    0.149  910.0  1
   267 2   -1.680   -1.200    7.257    0.147  910.0  1
   268 2   -2.720    0.766    7.118    0.158  910.0  1
   269 2   -2.640   -1.634    7.379    0.139  910.0  1
   270 2   -0.800   -1.474    7.127    0.150  910.0  1
   271 1    1.520   -0.240    7.494    0.155  910.0  1
   272 1    2.400   -0.400    7.494    0.151  910.0  1
   273 2   -5.120   -1.794    7.120    0.153  910.0  1
   274 2   -0.560    0.720    7.240    0.158  910.0  1
   275 2   -1.360    1.886    7.379    0.145  910.0  1
   276 2   -3.120   -1.314    7.366    0.156  910.0  1
   277 2   -1.680   -0.034    7.117    0.157  910.0  1
   278 2   -2.480   -0.560    7.500    0.159  910.0  1
   279 2   -2.400   -1.154    7.128    0.141  910.0  1
   280 1    1.040   -0.354    7.128    0.157  910.0  1
   281 1    4.080   -0.994    7.371    0.158  910.0  1
   282 2   -5.040   -0.354    7.117    0.152  910.0  1
   283 2   -2.240    1.840    7.490    0.151  910.0  1
   284 2   -4.480    0.880    7.494    0.155  910.0  1
   285 1    5.520    0.080    7.244    0.153  910.0  1
   286 1    5.280    1.726    7.370    0.154  910.0  1
   287 2   -4.000    1.406    7.123    0.146  910.0  1
   288 1    6.000   -1.840    7.497    0.153  910.0  1
   289 1    2.480    0.286    7.373    0.157  910.0  1
   290 1    4.800    0.766    7.131    0.150  910.0  1
   291 2   -0.560   -0.354    7.112    0.158  910.0  1
   292 2   -0.960    0.240    7.496    0.151  910.0  1
   293 2   -1.280   -0.514    7.369    0.148  910.0  1
   294 1    4.560   -0.994    7.374    0.150  910.0  1
   295 2   -2.400    0.880    7.246    0.154  910.0  1
   296 1    4.560    1.246    7.130    0.141  910.0  1
   297 1    2.880    0.240    7.495    0.152  910.0  1
   298 2   -4.880    1.566    7.367    0.157  910.0  1
   299 1    0.800   -1.794    7.366    0.153  910.0  1
   300 1    3.120    0.926    7.370    0.157  910.0  1
   301 2   -4.160   -1.040    7.493    0.155  910.0  1
   302 1    5.120   -1.360    7.497    0.150  910.0  1
   303 2   -2.960   -1.954    7.374    0.150  910.0  1
   304 2   -3.120    0.400    7.249    0.155  910.0  1
   305 1    1.040    1.246    7.123    0.148  910.0  1
   306 2   -2.960   -0.354    7.118    0.155  910.0  1
   307 1    0.960    1.086    7.368    0.157  910.0  1
   308 2   -5.680    1.360    7.247    0.157  910.0  1
   309 1    0.640   -1.474    7.370    0.159  910.0  1
   310 1    4.080    0.286    7.380    0.138  910.0  1
   311 1    3.600   -1.840    7.254    0.138  910.0  1
   312 2   -2.960    1.246    7.368    0.158  910.0  1
   313 1    5.680   -0.240    7.258    0.137  910.0  1
   314 2   -2.400   -0.194    7.118    0.156  910.0  1
   315 1    6.000   -1.200    7.248    0.152  910.0  1
   316 1    3.760    0.720    7.251    0.153  910.0  1
   317 1    4.880    0.286    7.369    0.157  910.0  1
   318 2   -2.640   -0.354    7.369    0.159  910.0  1
   319 1    3.040    0.240    7.495    0.153  910.0  1
   320 1    4.480   -0.514    7.115    0.151  910.0  1
   321 1    3.040   -0.080    7.243    0.158  910.0  1
   322 2   -0.560   -1.200    7.495    0.151  910.0  1
   323 2   -3.040    1.520    7.242    0.160  910.0  1
   324 1    2.320    0.926    7.374    0.159  910.0  1
   325 2   -5.040   -1.634    7.369    0.156  910.0  1
   326 1    5.280    1.086    7.378    0.143  910.0  1
   327 1    0.640   -0.080    7.491    0.153  910.0  1
   328 2   -5.040    1.360    7.243    0.153  910.0  1
   329 2   -3.120    0.606    7.368    0.150  910.0  1
   330 2   -3.120    0.286    7.369    0.154  910.0  1
   331 1    5.440   -0.400    7.491    0.157  910.0  1
   332 2   -3.760    1.680    7.494    0.157  910.0  1
   333 2   -3.520   -0.720    7.492    0.152  910.0  1
   334 2   -1.280    0.880    7.497    0.157  910.0  1
   335 2   -3.040    1.200    7.250    0.139  910.0  1
   336 2   -3.680   -1.154    7.126    0.139  910.0  1
   337 1    4.960    1.840    7.247    0.145  910.0  1
   338 1    2.400   -1.360    7.491    0.148  910.0  1
   339 2   -4.640   -0.400    7.240    0.157  910.0  1
   340 1    5.920    1.726    7.370    0.152  910.0  1
   341 1    5.440    0.560    7.250    0.148  910.0  1
   342 1    1.680    0.606    7.127    0.142  910.0  1
   343 2   -2.400    0.446    7.370    0.149  910.0  1
   344 1    3.120   -0.674    7.131    0.132  910.0  1
   345 2   -2.080   -1.360    7.491    0.156  910.0  1
   346 1    4.960    0.766    7.128    0.154  910.0  1
   347 2   -2.640   -1.520    7.247    0.155  910.0  1
   348 2   -3.520   -1.680    7.260    0.156  910.0  1
   349 2   -2.320   -0.674    7.367    0.160  910.0  1
   350 2   -4.880    0.926    7.371    0.154  910.0  1
   351 2   -4.480   -1.360    7.495    0.153  910.0  1
   352 2   -5.840    1.886    7.374    0.150  910.0  1
   353 1    1.920    0.446    7.112    0.156  910.0  1
   354 1    4.720    0.080    7.495    0.154  910.0  1
   355 2   -3.920    1.040    7.239    0.160  910.0  1
   356 2   -1.760   -0.834    7.124    0.148  910.0  1
   357 1    1.920   -0.400    7.250    0.143  910.0  1
   358 1    1.120    1.726    7.374    0.153  910.0  1
   359 1    5.440   -1.154    7.372    0.152  910.0  1
   360 2   -0.560   -0.560    7.244    0.158  910.0  1
   361 2   -4.560    0.080    7.498    0.158  910.0  1
   362 2   -1.360   -0.560    7.496    0.158  910.0  1
   363 1    3.040    0.880    7.497    0.157  910.0  1
   364 2   -1.840   -1.200    7.493    0.146  910.0  1
   365 2   -5.360    1.566    7.372    0.157  910.0  1
   366 1    2.320    0.720    7.484    0.133  910.0  1
   367 2   -5.040    1.246    7.111    0.159  910.0  1
   368 1    2.400    0.766    7.128    0.155  910.0  1
   369 2   -4.880   -1.840    7.245    0.159  910.0  1
   370 2   -5.200    1.246    7.369    0.158  910.0  1
   371 1    4.720   -1.200    7.496    0.151  910.0  1
   372 2   -1.440    1.520    7.498    0.159  910.0  1
   373 1    1.360   -1.840    7.242    0.156  910.0  1
   374 1    1.840    0.606    7.131    0.151  910.0  1
   375 2   -4.800    1.406    7.367    0.157  910.0  1
   376 1    1.600   -1.474    7.378    0.150  910.0  1
   377 2   -4.480    0.240    7.493    0.158  910.0  1
   378 2   -2.400   -0.720    7.242    0.151  910.0  1
   379 1    5.680    1.566    7.123    0.142  910.0  1
   380 1    1.760    0.766    7.127    0.152  910.0  1
   381 1    5.600   -0.834    7.117    0.149  910.0  1
   382 2   -2.160    0.400    7.240    0.150  910.0  1
   383 1    2.480    1.680    7.242    0.153  910.0  1
   384 1    4.320   -0.834    7.365    0.157  910.0  1
   385 1    2.160   -0.560    7.498    0.159  910.0  1
   386 2   -2.480   -0.034    7.121    0.151  910.0  1
   387 1    0.640    1.200    7.491    0.146  910.0  1
   388 2   -1.120   -1.474    7.115    0.155  910.0  1
   389 1    4.240    1.886    7.138    0.149  910.0  1
   390 2   -3.760    0.080    7.497    0.149  910.0  1
   391 1    4.400    1.360    7.500    0.154  910.0  1
   392 1    4.880   -1.634    7.125    0.155  910.0  1
   393 1    5.360    0.286    7.370    0.159  910.0  1
   394 2   -5.680    0.286    7.110    0.155  910.0  1
   395 2   -1.200    1.040    7.254    0.147  910.0  1
   396 2   -6.000    1.040    7.492    0.157  910.0  1
   397 2   -2.560   -1.474    7.371    0.154  910.0  1
   398 2   -6.000    0.606    7.370    0.157  910.0  1
   399 1    0.640    0.766    7.373    0.150  910.0  1
   400 1    1.680    1.040    7.491    0.156  910.0  1
   401 1    5.440   -1.680    7.489    0.139  910.0  1
   402 2   -5.120    0.126    7.372    0.153  910.0  1
   403 2   -6.000   -0.240    7.500    0.158  910.0  1
   404 1    4.640   -0.400    7.499    0.158  910.0  1
   405 2   -6.000   -0.240    7.249    0.151  910.0  1
   406 1    3.840    0.126    7.370    0.151  910.0  1
   407 1    2.000   -1.520    7.246    0.159  910.0  1
   408 1    4.240   -0.994    7.373    0.151  910.0  1
   409 1    1.200   -0.034    7.120    0.155  910.0  1
   410 1    4.240    1.246    7.374    0.155  910.0  1
   411 2   -4.560    1.040    7.489    0.143  910.0  1
   412 1    5.600   -0.514    7.120    0.155  910.0  1
   413 2   -6.000    0.286    7.362    0.160  910.0  1
   414 2   -1.680    1.246    7.131    0.147  910.0  1
   415 1    2.240   -1.154    7.377    0.143  910.0  1
   416 1    2.240    0.560    7.252    0.151  910.0  1
   417 2   -3.600   -0.994    7.131    0.145  910.0  1
   418 2   -5.600    0.560    7.496    0.158  910.0  1
   419 1    5.760    0.880    7.495    0.157  910.0  1
   420 1    3.680    1.726    7.371    0.154  910.0  1
   421 1    5.360    0.080    7.496    0.155  910.0  1
   422 2   -5.520    1.566    7.126    0.139  910.0  1
   423 2   -2.560    0.766    7.378    0.141  910.0  1
   424 2   -3.600    0.080    7.499    0.154  910.0  1
   425 1    1.840    0.080    7.496    0.158  910.0  1
   426 2   -4.960   -1.154    7.379    0.141  910.0  1
   427 2   -2.400    0.766    7.369    0.156  910.0  1
   428 1    1.920   -1.154    7.374    0.149  910.0  1
   429 2   -2.800    1.040    7.247    0.157  910.0  1
   430 2   -2.480   -1.954    7.131    0.141  910.0  1
   431 2   -0.720    0.606    7.372    0.158  910.0  1
   432 2   -2.080    0.126    7.127    0.159  910.0  1
   433 2   -3.360   -1.154    7.372    0.151  910.0  1
   434 2   -5.120   -1.154    7.372    0.151  910.0  1
   435 2   -2.800    0.286    7.366    0.159  910.0  1
   436 2   -1.840    1.040    7.245    0.150  910.0  1
   437 1    2.000    0.606    7.114    0.158  910.0  1
   438 1    4.320    1.726    7.367    0.159  910.0  1
   439 2   -1.200    0.400    7.493    0.156  910.0  1
   440 2   -3.600   -1.954    7.113    0.157  910.0  1
   441 2   -6.000   -1.314    7.369    0.157  910.0  1
   442 1    0.560   -1.840    7.489    0.154  910.0  1
   443 2   -5.280   -0.720    7.252    0.142  910.0  1
   444 1    2.160   -1.634    7.129    0.159  910.0  1
   445 1    4.240   -1.520    7.494    0.154  910.0  1
   446 1    2.560    0.126    7.378    0.141  910.0  1
   447 1    3.040   -0.080    7.495    0.152  910.0  1
   448 1    4.560   -1.520    7.488    0.153  910.0  1
   449 1    2.480   -0.034    7.121    0.159  910.0  1
   450 1    4.720    1.680    7.496    0.159  910.0  1
   451 1    6.000   -1.314    7.371    0.148  910.0  1
   452 1    5.120   -0.514    7.367    0.153  910.0  1
   453 1    5.280    1.520    7.497    0.151  910.0  1
   454 2   -4.960    0.240    7.499    0.159  910.0  1
   455 2   -5.120   -0.194    7.116    0.158  910.0  1
   456 1    5.440    0.240    7.243    0.153  910.0  1
   457 1    4.080    1.566    7.369    0.159  910.0  1
   458 2   -5.280    0.560    7.499    0.159  910.0  1
   459 1    2.400   -0.400    7.247    0.153  910.0  1
   460 2   -5.520    0.606    7.133    0.157  910.0  1
   461 2   -3.600   -0.560    7.500    0.159  910.0  1
   462 2   -5.760    0.560    7.489    0.144  910.0  1
   463 1    5.840    1.040    7.491    0.136  910.0  1
   464 1    4.400    0.606    7.115    0.149  910.0  1
   465 1    2.640   -1.520    7.493    0.158  910.0  1
   466 2   -5.200    0.286    7.369    0.147  910.0  1
   467 1    3.920   -0.034    7.368    0.155  910.0  1
   468 1    1.120   -1.040    7.244    0.150  910.0  1
   469 1    1.680    0.080    7.494    0.157  910.0  1
   470 2   -2.960    1.566    7.113    0.157  910.0  1
   471 2   -1.200   -0.880    7.253    0.151  910.0  1
   472 1    4.000    1.520    7.499    0.159  910.0  1
   473 1    4.880   -1.314    7.127    0.140  910.0  1
   474 1    2.080   -1.794    7.375    0.150  910.0  1
   475 2   -3.280   -1.840    7.492    0.158  910.0  1
   476 1    1.200   -1.200    7.248    0.159  910.0  1
   477 2   -4.080   -0.034    7.113    0.158  910.0  1
   478 2   -5.040   -0.034    7.372    0.159  910.0  1
   479 2   -3.840   -0.720    7.491    0.157  910.0  1
   480 1    1.440   -0.400    7.246    0.159  910.0  1
   481 1    0.800   -0.080    7.493    0.157  910.0  1
   482 1    3.600    1.886    7.120    0.159  910.0  1
   483 2   -1.040   -0.880    7.492    0.153  910.0  1
   484 1    2.400    0.126    7.131    0.156  910.0  1
   485 1    1.360   -1.200    7.249    0.157  910.0  1
   486 1    5.840   -1.954    7.371    0.155  910.0  1
   487 1    3.280   -0.354    7.120    0.160  910.0  1
   488 1    3.360    0.240    7.253    0.144  910.0  1
   489 2   -1.040   -0.994    7.127    0.147  910.0  1
   490 2   -2.080   -0.720    7.239    0.159  910.0  1
   491 1    5.440    1.840    7.494    0.160  910.0  1
   492 2   -3.360   -1.040    7.500    0.158  910.0  1
   493 1    6.000    1.246    7.369    0.147  910.0  1
   494 1    4.080   -0.674    7.368    0.159  910.0  1
   495 2   -4.880   -0.560    7.251    0.153  910.0  1
   496 1    2.320   -1.520    7.246    0.159  910.0  1
   497 2   -2.000    1.040    7.499    0.159  910.0  1
   498 2   -2.480   -1.314    7.375    0.148  910.0  1
   499 1    5.200    1.566    7.131    0.157  910.0  1
   500 1    4.320    1.406    7.115    0.159  910.0  1
   501 1    3.360    1.200    7.492    0.143  910.0  1
   502 1    1.840   -0.674    7.371    0.155  910.0  1
   503 2   -5.680    1.566    7.113    0.156  910.0  1
   504 1    5.040    1.680    7.244    0.151  910.0  1
   505 2   -2.400   -0.194    7.377    0.145  910.0  1
   506 1    2.000    1.360    7.241    0.155  910.0  1
   507 1    5.120   -0.720    7.249    0.160  910.0  1
   508 2   -2.480    1.680    7.492    0.156  910.0  1
   509 1    1.600   -0.080    7.243    0.159  910.0  1
   510 1    4.720    0.926    7.124    0.147  910.0  1
   511 1    4.480    1.086    7.374    0.158  910.0  1
   512 2   -1.360    0.606    7.118    0.146  910.0  1
   513 1    3.440   -1.840    7.494    0.160  910.0  1
   514 1    5.200    1.680    7.246    0.156  910.0  1
   515 2   -0.800    1.406    7.367    0.159  910.0  1
   516 1    3.680   -0.720    7.249    0.154  910.0  1
   517 2   -4.080    1.566    7.138    0.157  910.0  1
   518 2   -2.400   -0.514    7.117    0.151  910.0  1
   519 1    5.840    0.080    7.489    0.145  910.0  1
   520 2   -4.320   -1.474    7.119    0.136  910.0  1
   521 2   -5.280   -0.400    7.239    0.159  910.0  1
   522 1    1.680   -1.634    7.125    0.159  910.0  1
   523 2   -4.560   -1.314    7.120    0.156  910.0  1
   524 1    2.800   -0.560    7.261    0.144  910.0  1
   525 1    1.040    0.606    7.131    0.160  910.0  1
   526 2   -2.960   -0.034    7.123    0.151  910.0  1
   527 1    3.600    1.246    7.372    0.159  910.0  1
   528 1    5.360    1.566    7.119    0.158  910.0  1
   529 2   -4.240    0.606    7.110    0.154  910.0  1
   530 1    5.760    1.840    7.245    0.146  910.0  1
   531 1    6.000    0.606    7.118    0.154  910.0  1
   532 1    5.520   -0.240    7.492    0.155  910.0  1
   533 2   -1.280   -0.720    7.497    0.144  910.0  1
   534 2   -2.240   -1.154    7.376    0.153  910.0  1
   535 2   -3.520   -1.154    7.123    0.155  910.0  1
   536 1    1.760    0.560    7.488    0.141  910.0  1
   537 1    2.640    0.606    7.125    0.154  910.0  1
   538 1    3.040    0.446    7.121    0.151  910.0  1
   539 2   -2.640   -1.840    7.494    0.159  910.0  1
   540 2   -1.360   -0.034    7.373    0.153  910.0  1