 Input file for LIGGGHTS, created with Matlab function LIGGGHTSinit_fromdump.m

 1627 atoms

    1 atom types

        -73.831         73.831 xlo xhi
         0.526          10.526 ylo yhi
         -0.500          0.500 zlo zhi

 2449 bonds

    2 bond types

    7 extra bond per atom

 Atoms

     1 1         56.839          7.700          0.000       0.217    0.100  910.000 1
     2 1         60.602          7.700          0.000       0.241    0.100  910.000 1
     3 1         -7.717          7.700          0.000       0.229    0.100  910.000 1
     4 1         32.328          7.700          0.000       0.258    0.100  910.000 1
     5 1         59.498          7.700          0.000       0.217    0.100  910.000 1
     6 1        -65.563          7.700          0.000       0.266    0.100  910.000 1
     7 1         10.920          7.699          0.000       0.228    0.100  910.000 1
     8 1         57.082          7.699          0.000       0.269    0.100  910.000 1
     9 1        -28.472          7.698          0.000       0.299    0.100  910.000 1
    10 1         25.930          7.698          0.000       0.246    0.100  910.000 1
    11 1         14.353          7.698          0.000       0.238    0.100  910.000 1
    12 1         61.623          7.698          0.000       0.231    0.100  910.000 1
    13 1         12.615          7.698          0.000       0.284    0.100  910.000 1
    14 1        -65.818          7.698          0.000       0.244    0.100  910.000 1
    15 1        -42.024          7.698          0.000       0.253    0.100  910.000 1
    16 1         -8.082          7.697          0.000       0.282    0.100  910.000 1
    17 1         61.133          7.697          0.000       0.252    0.100  910.000 1
    18 1         15.686          7.697          0.000       0.282    0.100  910.000 1
    19 1         34.415          7.696          0.000       0.203    0.100  910.000 1
    20 1         -6.026          7.696          0.000       0.216    0.100  910.000 1
    21 1         -1.703          7.696          0.000       0.284    0.100  910.000 1
    22 1         33.692          7.696          0.000       0.219    0.100  910.000 1
    23 1        -51.629          7.696          0.000       0.263    0.100  910.000 1
    24 1        -51.343          7.695          0.000       0.297    0.100  910.000 1
    25 1        -55.266          7.695          0.000       0.248    0.100  910.000 1
    26 1          6.721          7.695          0.000       0.240    0.100  910.000 1
    27 1        -18.008          7.695          0.000       0.294    0.100  910.000 1
    28 1        -55.524          7.695          0.000       0.265    0.100  910.000 1
    29 1        -18.953          7.695          0.000       0.298    0.100  910.000 1
    30 1         40.340          7.695          0.000       0.201    0.100  910.000 1
    31 1         34.165          7.694          0.000       0.293    0.100  910.000 1
    32 1         46.682          7.694          0.000       0.275    0.100  910.000 1
    33 1         20.382          7.694          0.000       0.217    0.100  910.000 1
    34 1        -58.852          7.694          0.000       0.222    0.100  910.000 1
    35 1         22.368          7.692          0.000       0.276    0.100  910.000 1
    36 1        -26.750          7.692          0.000       0.267    0.100  910.000 1
    37 1         67.779          7.692          0.000       0.239    0.100  910.000 1
    38 1        -65.295          7.692          0.000       0.270    0.100  910.000 1
    39 1         -1.121          7.691          0.000       0.252    0.100  910.000 1
    40 1        -61.846          7.691          0.000       0.279    0.100  910.000 1
    41 1        -23.752          7.691          0.000       0.282    0.100  910.000 1
    42 1         67.535          7.691          0.000       0.205    0.100  910.000 1
    43 1        -32.645          7.691          0.000       0.238    0.100  910.000 1
    44 1        -45.331          7.691          0.000       0.298    0.100  910.000 1
    45 1         55.976          7.691          0.000       0.220    0.100  910.000 1
    46 1        -62.158          7.690          0.000       0.287    0.100  910.000 1
    47 1         36.839          7.690          0.000       0.249    0.100  910.000 1
    48 1         56.552          7.690          0.000       0.207    0.100  910.000 1
    49 1         26.172          7.690          0.000       0.238    0.100  910.000 1
    50 1         54.468          7.690          0.000       0.270    0.100  910.000 1
    51 1        -24.982          7.689          0.000       0.222    0.100  910.000 1
    52 1          5.224          7.689          0.000       0.235    0.100  910.000 1
    53 1        -11.553          7.688          0.000       0.243    0.100  910.000 1
    54 1         26.702          7.688          0.000       0.293    0.100  910.000 1
    55 1         25.658          7.688          0.000       0.239    0.100  910.000 1
    56 1          5.746          7.687          0.000       0.216    0.100  910.000 1
    57 1        -63.036          7.686          0.000       0.227    0.100  910.000 1
    58 1        -36.541          7.685          0.000       0.270    0.100  910.000 1
    59 1         53.461          7.684          0.000       0.228    0.100  910.000 1
    60 1          5.473          7.684          0.000       0.263    0.100  910.000 1
    61 1        -50.186          7.684          0.000       0.241    0.100  910.000 1
    62 1        -12.903          7.684          0.000       0.239    0.100  910.000 1
    63 1         36.149          7.683          0.000       0.276    0.100  910.000 1
    64 1         -2.846          7.683          0.000       0.212    0.100  910.000 1
    65 1        -67.457          7.682          0.000       0.229    0.100  910.000 1
    66 1        -63.489          7.681          0.000       0.283    0.100  910.000 1
    67 1        -32.401          7.681          0.000       0.208    0.100  910.000 1
    68 1        -39.935          7.681          0.000       0.247    0.100  910.000 1
    69 1        -24.618          7.681          0.000       0.209    0.100  910.000 1
    70 1         35.046          7.681          0.000       0.258    0.100  910.000 1
    71 1         29.887          7.680          0.000       0.256    0.100  910.000 1
    72 1         -2.630          7.680          0.000       0.221    0.100  910.000 1
    73 1          6.486          7.680          0.000       0.229    0.100  910.000 1
    74 1         32.070          7.679          0.000       0.215    0.100  910.000 1
    75 1         65.921          7.679          0.000       0.235    0.100  910.000 1
    76 1        -61.558          7.678          0.000       0.297    0.100  910.000 1
    77 1        -10.243          7.678          0.000       0.257    0.100  910.000 1
    78 1         54.222          7.678          0.000       0.219    0.100  910.000 1
    79 1         23.183          7.678          0.000       0.245    0.100  910.000 1
    80 1        -15.462          7.677          0.000       0.246    0.100  910.000 1
    81 1         52.099          7.677          0.000       0.250    0.100  910.000 1
    82 1         54.717          7.677          0.000       0.228    0.100  910.000 1
    83 1         -7.166          7.676          0.000       0.271    0.100  910.000 1
    84 1        -41.769          7.674          0.000       0.259    0.100  910.000 1
    85 1         26.982          7.674          0.000       0.267    0.100  910.000 1
    86 1        -38.457          7.673          0.000       0.277    0.100  910.000 1
    87 1         -6.916          7.673          0.000       0.228    0.100  910.000 1
    88 1        -14.168          7.673          0.000       0.253    0.100  910.000 1
    89 1        -32.975          7.672          0.000       0.289    0.100  910.000 1
    90 1         22.899          7.672          0.000       0.212    0.100  910.000 1
    91 1         37.511          7.671          0.000       0.285    0.100  910.000 1
    92 1         27.527          7.671          0.000       0.238    0.100  910.000 1
    93 1         45.358          7.670          0.000       0.275    0.100  910.000 1
    94 1        -10.500          7.670          0.000       0.258    0.100  910.000 1
    95 1         13.450          7.670          0.000       0.298    0.100  910.000 1
    96 1         21.437          7.669          0.000       0.261    0.100  910.000 1
    97 1         53.687          7.668          0.000       0.226    0.100  910.000 1
    98 1        -38.200          7.668          0.000       0.237    0.100  910.000 1
    99 1         61.992          7.668          0.000       0.293    0.100  910.000 1
   100 1        -48.367          7.668          0.000       0.222    0.100  910.000 1
   101 1         20.610          7.668          0.000       0.237    0.100  910.000 1
   102 1         22.097          7.668          0.000       0.236    0.100  910.000 1
   103 1        -34.453          7.668          0.000       0.298    0.100  910.000 1
   104 1         64.400          7.667          0.000       0.203    0.100  910.000 1
   105 1         19.684          7.667          0.000       0.201    0.100  910.000 1
   106 1         34.816          7.666          0.000       0.201    0.100  910.000 1
   107 1         30.621          7.666          0.000       0.202    0.100  910.000 1
   108 1          6.123          7.666          0.000       0.201    0.100  910.000 1
   109 1        -64.166          7.665          0.000       0.241    0.100  910.000 1
   110 1        -53.239          7.665          0.000       0.246    0.100  910.000 1
   111 1         25.044          7.665          0.000       0.277    0.100  910.000 1
   112 1        -11.301          7.663          0.000       0.265    0.100  910.000 1
   113 1         -9.072          7.663          0.000       0.216    0.100  910.000 1
   114 1         -3.736          7.662          0.000       0.287    0.100  910.000 1
   115 1         27.267          7.662          0.000       0.255    0.100  910.000 1
   116 1         19.397          7.662          0.000       0.207    0.100  910.000 1
   117 1         -7.413          7.661          0.000       0.221    0.100  910.000 1
   118 1        -12.426          7.661          0.000       0.220    0.100  910.000 1
   119 1         24.322          7.661          0.000       0.246    0.100  910.000 1
   120 1        -11.027          7.660          0.000       0.281    0.100  910.000 1
   121 1        -63.943          7.660          0.000       0.204    0.100  910.000 1
   122 1        -49.005          7.660          0.000       0.209    0.100  910.000 1
   123 1         65.434          7.659          0.000       0.227    0.100  910.000 1
   124 1         26.424          7.659          0.000       0.266    0.100  910.000 1
   125 1        -52.797          7.659          0.000       0.248    0.100  910.000 1
   126 1        -35.635          7.658          0.000       0.279    0.100  910.000 1
   127 1         35.847          7.658          0.000       0.204    0.100  910.000 1
   128 1          7.551          7.658          0.000       0.208    0.100  910.000 1
   129 1        -21.218          7.658          0.000       0.285    0.100  910.000 1
   130 1        -47.119          7.657          0.000       0.246    0.100  910.000 1
   131 1        -44.776          7.657          0.000       0.283    0.100  910.000 1
   132 1         27.852          7.657          0.000       0.210    0.100  910.000 1
   133 1        -42.405          7.656          0.000       0.292    0.100  910.000 1
   134 1         19.167          7.656          0.000       0.246    0.100  910.000 1
   135 1        -56.833          7.654          0.000       0.249    0.100  910.000 1
   136 1        -44.495          7.654          0.000       0.277    0.100  910.000 1
   137 1         39.439          7.653          0.000       0.282    0.100  910.000 1
   138 1         59.153          7.653          0.000       0.278    0.100  910.000 1
   139 1         53.908          7.653          0.000       0.215    0.100  910.000 1
   140 1        -16.194          7.653          0.000       0.222    0.100  910.000 1
   141 1        -17.545          7.653          0.000       0.237    0.100  910.000 1
   142 1        -13.866          7.652          0.000       0.230    0.100  910.000 1
   143 1         -2.232          7.652          0.000       0.205    0.100  910.000 1
   144 1        -49.937          7.651          0.000       0.262    0.100  910.000 1
   145 1         57.340          7.651          0.000       0.256    0.100  910.000 1
   146 1         -3.296          7.650          0.000       0.214    0.100  910.000 1
   147 1        -26.289          7.649          0.000       0.223    0.100  910.000 1
   148 1        -43.791          7.648          0.000       0.222    0.100  910.000 1
   149 1         -4.364          7.647          0.000       0.223    0.100  910.000 1
   150 1        -55.784          7.647          0.000       0.210    0.100  910.000 1
   151 1        -64.636          7.647          0.000       0.266    0.100  910.000 1
   152 1         47.876          7.646          0.000       0.269    0.100  910.000 1
   153 1        -62.439          7.646          0.000       0.246    0.100  910.000 1
   154 1         31.164          7.646          0.000       0.270    0.100  910.000 1
   155 1        -35.153          7.644          0.000       0.268    0.100  910.000 1
   156 1         51.646          7.643          0.000       0.250    0.100  910.000 1
   157 1        -60.157          7.643          0.000       0.258    0.100  910.000 1
   158 1         63.040          7.643          0.000       0.296    0.100  910.000 1
   159 1         46.953          7.641          0.000       0.278    0.100  910.000 1
   160 1        -37.447          7.639          0.000       0.204    0.100  910.000 1
   161 1        -50.618          7.639          0.000       0.292    0.100  910.000 1
   162 1         55.079          7.639          0.000       0.236    0.100  910.000 1
   163 1        -67.671          7.639          0.000       0.205    0.100  910.000 1
   164 1         58.871          7.638          0.000       0.283    0.100  910.000 1
   165 1         29.124          7.638          0.000       0.230    0.100  910.000 1
   166 1         15.436          7.637          0.000       0.232    0.100  910.000 1
   167 1        -45.694          7.637          0.000       0.298    0.100  910.000 1
   168 1         23.623          7.637          0.000       0.211    0.100  910.000 1
   169 1        -43.578          7.637          0.000       0.205    0.100  910.000 1
   170 1        -27.908          7.636          0.000       0.210    0.100  910.000 1
   171 1         57.601          7.636          0.000       0.261    0.100  910.000 1
   172 1        -30.165          7.635          0.000       0.201    0.100  910.000 1
   173 1         10.631          7.633          0.000       0.255    0.100  910.000 1
   174 1        -67.009          7.633          0.000       0.225    0.100  910.000 1
   175 1        -49.494          7.631          0.000       0.251    0.100  910.000 1
   176 1        -33.754          7.630          0.000       0.242    0.100  910.000 1
   177 1         -6.227          7.629          0.000       0.208    0.100  910.000 1
   178 1        -44.032          7.629          0.000       0.258    0.100  910.000 1
   179 1        -15.756          7.629          0.000       0.205    0.100  910.000 1
   180 1        -10.758          7.628          0.000       0.261    0.100  910.000 1
   181 1        -37.660          7.628          0.000       0.214    0.100  910.000 1
   182 1        -14.765          7.627          0.000       0.224    0.100  910.000 1
   183 1        -46.174          7.626          0.000       0.271    0.100  910.000 1
   184 1         30.156          7.626          0.000       0.293    0.100  910.000 1
   185 1         16.806          7.625          0.000       0.266    0.100  910.000 1
   186 1        -57.264          7.625          0.000       0.216    0.100  910.000 1
   187 1        -29.714          7.623          0.000       0.272    0.100  910.000 1
   188 1        -50.880          7.622          0.000       0.231    0.100  910.000 1
   189 1         28.144          7.622          0.000       0.286    0.100  910.000 1
   190 1        -36.080          7.622          0.000       0.251    0.100  910.000 1
   191 1         31.666          7.622          0.000       0.239    0.100  910.000 1
   192 1        -58.193          7.621          0.000       0.211    0.100  910.000 1
   193 1         43.279          7.621          0.000       0.208    0.100  910.000 1
   194 1        -51.104          7.621          0.000       0.204    0.100  910.000 1
   195 1        -31.719          7.619          0.000       0.235    0.100  910.000 1
   196 1        -39.166          7.619          0.000       0.262    0.100  910.000 1
   197 1         57.866          7.619          0.000       0.262    0.100  910.000 1
   198 1         21.053          7.618          0.000       0.266    0.100  910.000 1
   199 1        -43.180          7.618          0.000       0.259    0.100  910.000 1
   200 1         36.408          7.618          0.000       0.257    0.100  910.000 1
   201 1         15.021          7.615          0.000       0.205    0.100  910.000 1
   202 1        -60.770          7.615          0.000       0.225    0.100  910.000 1
   203 1        -64.387          7.615          0.000       0.212    0.100  910.000 1
   204 1         52.750          7.614          0.000       0.252    0.100  910.000 1
   205 1        -48.136          7.613          0.000       0.242    0.100  910.000 1
   206 1         41.875          7.612          0.000       0.255    0.100  910.000 1
   207 1         21.758          7.611          0.000       0.293    0.100  910.000 1
   208 1         58.135          7.609          0.000       0.262    0.100  910.000 1
   209 1        -21.689          7.606          0.000       0.242    0.100  910.000 1
   210 1         42.308          7.605          0.000       0.245    0.100  910.000 1
   211 1         47.376          7.604          0.000       0.220    0.100  910.000 1
   212 1         46.419          7.604          0.000       0.281    0.100  910.000 1
   213 1         20.183          7.604          0.000       0.218    0.100  910.000 1
   214 1         17.974          7.603          0.000       0.215    0.100  910.000 1
   215 1        -28.189          7.601          0.000       0.300    0.100  910.000 1
   216 1         28.428          7.600          0.000       0.283    0.100  910.000 1
   217 1         -6.476          7.599          0.000       0.294    0.100  910.000 1
   218 1        -54.576          7.595          0.000       0.211    0.100  910.000 1
   219 1        -63.246          7.593          0.000       0.231    0.100  910.000 1
   220 1         37.969          7.592          0.000       0.203    0.100  910.000 1
   221 1        -65.021          7.590          0.000       0.285    0.100  910.000 1
   222 1         33.908          7.590          0.000       0.261    0.100  910.000 1
   223 1        -58.436          7.589          0.000       0.278    0.100  910.000 1
   224 1        -63.733          7.588          0.000       0.240    0.100  910.000 1
   225 1        -42.698          7.587          0.000       0.298    0.100  910.000 1
   226 1        -36.795          7.586          0.000       0.275    0.100  910.000 1
   227 1         16.073          7.585          0.000       0.242    0.100  910.000 1
   228 1        -13.140          7.584          0.000       0.275    0.100  910.000 1
   229 1        -44.259          7.583          0.000       0.204    0.100  910.000 1
   230 1         -5.051          7.582          0.000       0.251    0.100  910.000 1
   231 1         43.039          7.581          0.000       0.276    0.100  910.000 1
   232 1        -61.210          7.581          0.000       0.292    0.100  910.000 1
   233 1         -8.347          7.576          0.000       0.208    0.100  910.000 1
   234 1          7.142          7.575          0.000       0.235    0.100  910.000 1
   235 1         46.132          7.573          0.000       0.296    0.100  910.000 1
   236 1        -30.383          7.571          0.000       0.253    0.100  910.000 1
   237 1         41.201          7.570          0.000       0.282    0.100  910.000 1
   238 1         -2.017          7.569          0.000       0.254    0.100  910.000 1
   239 1         58.596          7.567          0.000       0.208    0.100  910.000 1
   240 1         18.920          7.566          0.000       0.213    0.100  910.000 1
   241 1        -12.230          7.566          0.000       0.215    0.100  910.000 1
   242 1        -15.135          7.565          0.000       0.208    0.100  910.000 1
   243 1         13.714          7.565          0.000       0.270    0.100  910.000 1
   244 1         50.343          7.565          0.000       0.274    0.100  910.000 1
   245 1         36.640          7.564          0.000       0.219    0.100  910.000 1
   246 1        -50.378          7.564          0.000       0.211    0.100  910.000 1
   247 1         24.564          7.564          0.000       0.232    0.100  910.000 1
   248 1         55.326          7.563          0.000       0.257    0.100  910.000 1
   249 1        -12.663          7.563          0.000       0.292    0.100  910.000 1
   250 1         37.276          7.563          0.000       0.230    0.100  910.000 1
   251 1         45.137          7.563          0.000       0.216    0.100  910.000 1
   252 1         17.493          7.558          0.000       0.255    0.100  910.000 1
   253 1        -14.538          7.557          0.000       0.250    0.100  910.000 1
   254 1        -22.043          7.555          0.000       0.203    0.100  910.000 1
   255 1        -62.822          7.555          0.000       0.275    0.100  910.000 1
   256 1        -31.983          7.552          0.000       0.260    0.100  910.000 1
   257 1        -11.992          7.551          0.000       0.262    0.100  910.000 1
   258 1        -13.587          7.549          0.000       0.224    0.100  910.000 1
   259 1         -8.771          7.548          0.000       0.225    0.100  910.000 1
   260 1         62.782          7.547          0.000       0.255    0.100  910.000 1
   261 1         49.827          7.547          0.000       0.258    0.100  910.000 1
   262 1         -5.852          7.545          0.000       0.242    0.100  910.000 1
   263 1        -34.719          7.544          0.000       0.246    0.100  910.000 1
   264 1         51.142          7.544          0.000       0.232    0.100  910.000 1
   265 1         45.837          7.543          0.000       0.298    0.100  910.000 1
   266 1         52.484          7.542          0.000       0.298    0.100  910.000 1
   267 1         29.407          7.541          0.000       0.263    0.100  910.000 1
   268 1         30.424          7.538          0.000       0.268    0.100  910.000 1
   269 1        -38.704          7.537          0.000       0.220    0.100  910.000 1
   270 1         16.308          7.536          0.000       0.237    0.100  910.000 1
   271 1        -46.696          7.535          0.000       0.288    0.100  910.000 1
   272 1        -54.871          7.535          0.000       0.275    0.100  910.000 1
   273 1         51.881          7.534          0.000       0.268    0.100  910.000 1
   274 1         28.698          7.533          0.000       0.259    0.100  910.000 1
   275 1         20.810          7.528          0.000       0.252    0.100  910.000 1
   276 1        -33.551          7.525          0.000       0.215    0.100  910.000 1
   277 1         58.386          7.523          0.000       0.220    0.100  910.000 1
   278 1        -28.927          7.523          0.000       0.279    0.100  910.000 1
   279 1          8.451          7.520          0.000       0.276    0.100  910.000 1
   280 1        -40.275          7.519          0.000       0.300    0.100  910.000 1
   281 1        -67.249          7.519          0.000       0.295    0.100  910.000 1
   282 1        -36.324          7.517          0.000       0.279    0.100  910.000 1
   283 1         31.419          7.516          0.000       0.298    0.100  910.000 1
   284 1         -0.414          7.516          0.000       0.246    0.100  910.000 1
   285 1         47.172          7.516          0.000       0.225    0.100  910.000 1
   286 1        -49.718          7.516          0.000       0.252    0.100  910.000 1
   287 1         10.432          7.515          0.000       0.206    0.100  910.000 1
   288 1        -29.965          7.514          0.000       0.265    0.100  910.000 1
   289 1         51.405          7.514          0.000       0.297    0.100  910.000 1
   290 1         -8.551          7.514          0.000       0.218    0.100  910.000 1
   291 1         33.570          7.514          0.000       0.217    0.100  910.000 1
   292 1        -35.857          7.513          0.000       0.245    0.100  910.000 1
   293 1         14.776          7.513          0.000       0.202    0.100  910.000 1
   294 1        -35.428          7.512          0.000       0.226    0.100  910.000 1
   295 1        -22.871          7.512          0.000       0.291    0.100  910.000 1
   296 1          8.930          7.512          0.000       0.221    0.100  910.000 1
   297 1        -31.058          7.512          0.000       0.215    0.100  910.000 1
   298 1         -0.161          7.512          0.000       0.260    0.100  910.000 1
   299 1        -53.671          7.509          0.000       0.291    0.100  910.000 1
   300 1        -60.568          7.508          0.000       0.231    0.100  910.000 1
   301 1        -16.938          7.508          0.000       0.292    0.100  910.000 1
   302 1        -48.565          7.508          0.000       0.275    0.100  910.000 1
   303 1        -11.732          7.508          0.000       0.265    0.100  910.000 1
   304 1        -48.834          7.507          0.000       0.249    0.100  910.000 1
   305 1         -4.581          7.507          0.000       0.279    0.100  910.000 1
   306 1         49.048          7.507          0.000       0.282    0.100  910.000 1
   307 1        -18.238          7.506          0.000       0.300    0.100  910.000 1
   308 1          5.925          7.506          0.000       0.292    0.100  910.000 1
   309 1         12.930          7.506          0.000       0.296    0.100  910.000 1
   310 1        -65.698          7.506          0.000       0.204    0.100  910.000 1
   311 1        -40.844          7.505          0.000       0.268    0.100  910.000 1
   312 1        -39.419          7.505          0.000       0.288    0.100  910.000 1
   313 1        -45.023          7.505          0.000       0.290    0.100  910.000 1
   314 1         38.174          7.505          0.000       0.240    0.100  910.000 1
   315 1        -43.402          7.505          0.000       0.233    0.100  910.000 1
   316 1         18.666          7.505          0.000       0.296    0.100  910.000 1
   317 1        -52.339          7.505          0.000       0.269    0.100  910.000 1
   318 1        -25.333          7.504          0.000       0.232    0.100  910.000 1
   319 1         10.823          7.504          0.000       0.207    0.100  910.000 1
   320 1         11.320          7.504          0.000       0.269    0.100  910.000 1
   321 1        -46.947          7.503          0.000       0.213    0.100  910.000 1
   322 1         50.608          7.503          0.000       0.270    0.100  910.000 1
   323 1         40.221          7.503          0.000       0.251    0.100  910.000 1
   324 1         47.615          7.502          0.000       0.300    0.100  910.000 1
   325 1         18.232          7.502          0.000       0.286    0.100  910.000 1
   326 1        -16.402          7.502          0.000       0.292    0.100  910.000 1
   327 1        -20.685          7.501          0.000       0.279    0.100  910.000 1
   328 1         38.715          7.501          0.000       0.292    0.100  910.000 1
   329 1         66.076          7.501          0.000       0.237    0.100  910.000 1
   330 1         62.520          7.500          0.000       0.276    0.100  910.000 1
   331 1        -41.139          7.500          0.000       0.263    0.100  910.000 1
   332 1        -57.563          7.500          0.000       0.269    0.100  910.000 1
   333 1         53.001          7.500          0.000       0.299    0.100  910.000 1
   334 1        -25.577          7.500          0.000       0.253    0.100  910.000 1
   335 1         -9.255          7.500          0.000       0.274    0.100  910.000 1
   336 1        -59.809          7.500          0.000       0.288    0.100  910.000 1
   337 1         30.912          7.499          0.000       0.278    0.100  910.000 1
   338 1         63.802          7.499          0.000       0.292    0.100  910.000 1
   339 1         11.056          7.499          0.000       0.256    0.100  910.000 1
   340 1         13.974          7.499          0.000       0.267    0.100  910.000 1
   341 1        -53.047          7.499          0.000       0.261    0.100  910.000 1
   342 1        -23.405          7.498          0.000       0.295    0.100  910.000 1
   343 1         33.025          7.498          0.000       0.291    0.100  910.000 1
   344 1         59.899          7.498          0.000       0.271    0.100  910.000 1
   345 1         -1.253          7.498          0.000       0.216    0.100  910.000 1